unknown system                          
   1.00000000000000     
     5.428835    0.000000    0.000000
     0.000000    5.428835    0.000000
     0.000000    0.000000    5.428835
   Si
     8
Direct
  0.000000  0.000000  0.000000
  0.000000  0.500000  0.500000
  0.500000  0.500000  0.000000
  0.500000  0.000000  0.500000
  0.750000  0.250000  0.250000
  0.750000  0.750000  0.750000
  0.250000  0.750000  0.250000
  0.250000  0.250000  0.750000
 
   48   48   48
 -.29983163506E+02 -.23814522327E+02 -.72268650874E+01 0.14850885765E+02 0.36473746593E+02
 0.52773455101E+02 0.61251046844E+02 0.61994194682E+02 0.57056791970E+02 0.49399127293E+02
 0.41314521815E+02 0.33671760266E+02 0.26947654812E+02 0.21348830991E+02 0.16865760869E+02
 0.13358617926E+02 0.10642329862E+02 0.85473282983E+01 0.69440925300E+01 0.57379319588E+01
 0.48549851821E+01 0.42350020568E+01 0.38300910262E+01 0.36037579841E+01 0.35313381525E+01
 0.36037579841E+01 0.38300910262E+01 0.42350020568E+01 0.48549851821E+01 0.57379319588E+01
 0.69440925300E+01 0.85473282983E+01 0.10642329862E+02 0.13358617926E+02 0.16865760869E+02
 0.21348830991E+02 0.26947654812E+02 0.33671760266E+02 0.41314521815E+02 0.49399127293E+02
 0.57056791970E+02 0.61994194682E+02 0.61251046844E+02 0.52773455101E+02 0.36473746593E+02
 0.14850885765E+02 -.72268650874E+01 -.23814522327E+02 -.23814522327E+02 -.17940875650E+02
 -.21656391196E+01 0.18772035463E+02 0.39165791227E+02 0.54360803411E+02 0.61996966037E+02
 0.62211635151E+02 0.57031569167E+02 0.49335535240E+02 0.41275058631E+02 0.33669045534E+02
 0.26980592142E+02 0.21408986168E+02 0.16942919702E+02 0.13444208391E+02 0.10730609318E+02
 0.86351149303E+01 0.70298998262E+01 0.58211109229E+01 0.49352338901E+01 0.43123041514E+01
 0.39048410388E+01 0.36767838726E+01 0.36037579841E+01 0.36767838726E+01 0.39048410388E+01
 0.43123041514E+01 0.49352338901E+01 0.58211109229E+01 0.70298998262E+01 0.86351149303E+01
 0.10730609318E+02 0.13444208391E+02 0.16942919702E+02 0.21408986168E+02 0.26980592142E+02
 0.33669045534E+02 0.41275058631E+02 0.49335535240E+02 0.57031569167E+02 0.62211635151E+02
 0.61996966037E+02 0.54360803411E+02 0.39165791227E+02 0.18772035463E+02 -.21656391196E+01
 -.17940875650E+02 -.72268650874E+01 -.21656391196E+01 0.11375064516E+02 0.29185256361E+02
 0.46221489447E+02 0.58418656579E+02 0.63796883124E+02 0.62625016164E+02 0.56847303982E+02
 0.49097996093E+02 0.41129016689E+02 0.33644316340E+02 0.27069365493E+02 0.21583741961E+02
 0.17171944523E+02 0.13701132817E+02 0.10997704419E+02 0.89024208069E+01 0.72926070936E+01
 0.60770123990E+01 0.51832674623E+01 0.45522878012E+01 0.41377505574E+01 0.39048410388E+01
 0.38300910262E+01 0.39048410388E+01 0.41377505574E+01 0.45522878012E+01 0.51832674623E+01
 0.60770123990E+01 0.72926070936E+01 0.89024208069E+01 0.10997704419E+02 0.13701132817E+02
 0.17171944523E+02 0.21583741961E+02 0.27069365493E+02 0.33644316340E+02 0.41129016689E+02
 0.49097996093E+02 0.56847303982E+02 0.62625016164E+02 0.63796883124E+02 0.58418656579E+02
 0.46221489447E+02 0.29185256361E+02 0.11375064516E+02 -.21656391196E+01 0.14850885765E+02
 0.18772035463E+02 0.29185256361E+02 0.42642165450E+02 0.55047288775E+02 0.63170368862E+02
 0.65559750728E+02 0.62652333234E+02 0.56251333344E+02 0.48568997661E+02 0.40806193169E+02
 0.33554865063E+02 0.27187761895E+02 0.21858150900E+02 0.17546717716E+02 0.14130559603E+02
 0.11450716619E+02 0.93609964056E+01 0.77474572236E+01 0.65235178862E+01 0.56191472796E+01
 0.49769207251E+01 0.45522878012E+01 0.43123041514E+01 0.42350020568E+01 0.43123041514E+01
 0.45522878012E+01 0.49769207251E+01 0.56191472796E+01 0.65235178862E+01 0.77474572236E+01
 0.93609964056E+01 0.11450716619E+02 0.14130559603E+02 0.17546717716E+02 0.21858150900E+02
 0.27187761895E+02 0.33554865063E+02 0.40806193169E+02 0.48568997661E+02 0.56251333344E+02
 0.62652333234E+02 0.65559750728E+02 0.63170368862E+02 0.55047288775E+02 0.42642165450E+02
 0.29185256361E+02 0.18772035463E+02 0.36473746593E+02 0.39165791227E+02 0.46221489447E+02
 0.55047288775E+02 0.62603535206E+02 0.66576926020E+02 0.66077672135E+02 0.61691771732E+02
 0.55016897004E+02 0.47615272071E+02 0.40224836268E+02 0.33349018232E+02 0.27302844020E+02
 0.22213194213E+02 0.18060223960E+02 0.14736118547E+02 0.12102248546E+02 0.10030418758E+02
 0.84190224424E+01 0.71886778484E+01 0.62735641456E+01 0.56191472796E+01 0.51832674623E+01
 0.49352338901E+01 0.48549851821E+01 0.49352338901E+01 0.51832674623E+01 0.56191472796E+01
 0.62735641456E+01 0.71886778484E+01 0.84190224424E+01 0.10030418758E+02 0.12102248546E+02
 0.14736118547E+02 0.18060223960E+02 0.22213194213E+02 0.27302844020E+02 0.33349018232E+02
 0.40224836268E+02 0.47615272071E+02 0.55016897004E+02 0.61691771732E+02 0.66077672135E+02
 0.66576926020E+02 0.62603535206E+02 0.55047288775E+02 0.46221489447E+02 0.39165791227E+02
 0.52773455101E+02 0.54360803411E+02 0.58418656579E+02 0.63170368862E+02 0.66576926020E+02
 0.67177918985E+02 0.64578409364E+02 0.59446553525E+02 0.53029422812E+02 0.46145105050E+02
 0.39324554754E+02 0.32984512021E+02 0.27384988816E+02 0.22630983562E+02 0.18706892809E+02
 0.15524645934E+02 0.12970428818E+02 0.10938017185E+02 0.93414363814E+01 0.81113628320E+01
 0.71886778484E+01 0.65235178862E+01 0.60770123990E+01 0.58211109229E+01 0.57379319588E+01
 0.58211109229E+01 0.60770123990E+01 0.65235178862E+01 0.71886778484E+01 0.81113628320E+01
 0.93414363814E+01 0.10938017185E+02 0.12970428818E+02 0.15524645934E+02 0.18706892809E+02
 0.22630983562E+02 0.27384988816E+02 0.32984512021E+02 0.39324554754E+02 0.46145105050E+02
 0.53029422812E+02 0.59446553525E+02 0.64578409364E+02 0.67177918985E+02 0.66576926020E+02
 0.63170368862E+02 0.58418656579E+02 0.54360803411E+02 0.61251046844E+02 0.61996966037E+02
 0.63796883124E+02 0.65559750728E+02 0.66077672135E+02 0.64578409364E+02 0.61027513608E+02
 0.56050929719E+02 0.50271876887E+02 0.44142472876E+02 0.38087093693E+02 0.32440646709E+02
 0.27414611869E+02 0.23097935757E+02 0.19483383508E+02 0.16505467835E+02 0.14077513448E+02
 0.12117546919E+02 0.10557702235E+02 0.93414363814E+01 0.84190224424E+01 0.77474572236E+01
 0.72926070936E+01 0.70298998262E+01 0.69440925300E+01 0.70298998262E+01 0.72926070936E+01
 0.77474572236E+01 0.84190224424E+01 0.93414363814E+01 0.10557702235E+02 0.12117546919E+02
 0.14077513448E+02 0.16505467835E+02 0.19483383508E+02 0.23097935757E+02 0.27414611869E+02
 0.32440646709E+02 0.38087093693E+02 0.44142472876E+02 0.50271876887E+02 0.56050929719E+02
 0.61027513608E+02 0.64578409364E+02 0.66077672135E+02 0.65559750728E+02 0.63796883124E+02
 0.61996966037E+02 0.61994194682E+02 0.62211635151E+02 0.62625016164E+02 0.62652333234E+02
 0.61691771732E+02 0.59446553525E+02 0.56050929719E+02 0.51757447764E+02 0.46851172173E+02
 0.41670633265E+02 0.36540744417E+02 0.31722255019E+02 0.27384988816E+02 0.23606158436E+02
 0.20388549042E+02 0.17689176074E+02 0.15447894086E+02 0.13606920219E+02 0.12117546919E+02
 0.10938017185E+02 0.10030418758E+02 0.93609964056E+01 0.89024208069E+01 0.86351149303E+01
 0.85473282983E+01 0.86351149303E+01 0.89024208069E+01 0.93609964056E+01 0.10030418758E+02
 0.10938017185E+02 0.12117546919E+02 0.13606920219E+02 0.15447894086E+02 0.17689176074E+02
 0.20388549042E+02 0.23606158436E+02 0.27384988816E+02 0.31722255019E+02 0.36540744417E+02
 0.41670633265E+02 0.46851172173E+02 0.51757447764E+02 0.56050929719E+02 0.59446553525E+02
 0.61691771732E+02 0.62652333234E+02 0.62625016164E+02 0.62211635151E+02 0.57056791970E+02
 0.57031569167E+02 0.56847303982E+02 0.56251333344E+02 0.55016897004E+02 0.53029422812E+02
 0.50271876887E+02 0.46851172173E+02 0.42965072263E+02 0.38853580832E+02 0.34752629405E+02
 0.30857837080E+02 0.27302844020E+02 0.24154593799E+02 0.21424242000E+02 0.19087820042E+02
 0.17107835110E+02 0.15447894086E+02 0.14077513448E+02 0.12970428818E+02 0.12102248546E+02
 0.11450716619E+02 0.10997704419E+02 0.10730609318E+02 0.10642329862E+02 0.10730609318E+02
 0.10997704419E+02 0.11450716619E+02 0.12102248546E+02 0.12970428818E+02 0.14077513448E+02
 0.15447894086E+02 0.17107835110E+02 0.19087820042E+02 0.21424242000E+02 0.24154593799E+02
 0.27302844020E+02 0.30857837080E+02 0.34752629405E+02 0.38853580832E+02 0.42965072263E+02
 0.46851172173E+02 0.50271876887E+02 0.53029422812E+02 0.55016897004E+02 0.56251333344E+02
 0.56847303982E+02 0.57031569167E+02 0.49399127293E+02 0.49335535240E+02 0.49097996093E+02
 0.48568997661E+02 0.47615272071E+02 0.46145105050E+02 0.44142472876E+02 0.41670633265E+02
 0.38853580832E+02 0.35848090487E+02 0.32815054551E+02 0.29894502428E+02 0.27187761895E+02
 0.24750386165E+02 0.22597301821E+02 0.20717011692E+02 0.19087820042E+02 0.17689176074E+02
 0.16505467835E+02 0.15524645934E+02 0.14736118547E+02 0.14130559603E+02 0.13701132817E+02
 0.13444208391E+02 0.13358617926E+02 0.13444208391E+02 0.13701132817E+02 0.14130559603E+02
 0.14736118547E+02 0.15524645934E+02 0.16505467835E+02 0.17689176074E+02 0.19087820042E+02
 0.20717011692E+02 0.22597301821E+02 0.24750386165E+02 0.27187761895E+02 0.29894502428E+02
 0.32815054551E+02 0.35848090487E+02 0.38853580832E+02 0.41670633265E+02 0.44142472876E+02
 0.46145105050E+02 0.47615272071E+02 0.48568997661E+02 0.49097996093E+02 0.49335535240E+02
 0.41314521815E+02 0.41275058631E+02 0.41129016689E+02 0.40806193169E+02 0.40224836268E+02
 0.39324554754E+02 0.38087093693E+02 0.36540744417E+02 0.34752629405E+02 0.32815054551E+02
 0.30829549299E+02 0.28890266378E+02 0.27069365493E+02 0.25408623950E+02 0.23920450758E+02
 0.22597301821E+02 0.21424242000E+02 0.20388549042E+02 0.19483383508E+02 0.18706892809E+02
 0.18060223960E+02 0.17546717716E+02 0.17171944523E+02 0.16942919702E+02 0.16865760869E+02
 0.16942919702E+02 0.17171944523E+02 0.17546717716E+02 0.18060223960E+02 0.18706892809E+02
 0.19483383508E+02 0.20388549042E+02 0.21424242000E+02 0.22597301821E+02 0.23920450758E+02
 0.25408623950E+02 0.27069365493E+02 0.28890266378E+02 0.30829549299E+02 0.32815054551E+02
 0.34752629405E+02 0.36540744417E+02 0.38087093693E+02 0.39324554754E+02 0.40224836268E+02
 0.40806193169E+02 0.41129016689E+02 0.41275058631E+02 0.33671760266E+02 0.33669045534E+02
 0.33644316340E+02 0.33554865063E+02 0.33349018232E+02 0.32984512021E+02 0.32440646709E+02
 0.31722255019E+02 0.30857837080E+02 0.29894502428E+02 0.28890266378E+02 0.27903416948E+02
 0.26980592142E+02 0.26147799946E+02 0.25408623950E+02 0.24750386165E+02 0.24154593799E+02
 0.23606158436E+02 0.23097935757E+02 0.22630983562E+02 0.22213194213E+02 0.21858150900E+02
 0.21583741961E+02 0.21408986168E+02 0.21348830991E+02 0.21408986168E+02 0.21583741961E+02
 0.21858150900E+02 0.22213194213E+02 0.22630983562E+02 0.23097935757E+02 0.23606158436E+02
 0.24154593799E+02 0.24750386165E+02 0.25408623950E+02 0.26147799946E+02 0.26980592142E+02
 0.27903416948E+02 0.28890266378E+02 0.29894502428E+02 0.30857837080E+02 0.31722255019E+02
 0.32440646709E+02 0.32984512021E+02 0.33349018232E+02 0.33554865063E+02 0.33644316340E+02
 0.33669045534E+02 0.26947654812E+02 0.26980592142E+02 0.27069365493E+02 0.27187761895E+02
 0.27302844020E+02 0.27384988816E+02 0.27414611869E+02 0.27384988816E+02 0.27302844020E+02
 0.27187761895E+02 0.27069365493E+02 0.26980592142E+02 0.26947654812E+02 0.26980592142E+02
 0.27069365493E+02 0.27187761895E+02 0.27302844020E+02 0.27384988816E+02 0.27414611869E+02
 0.27384988816E+02 0.27302844020E+02 0.27187761895E+02 0.27069365493E+02 0.26980592142E+02
 0.26947654812E+02 0.26980592142E+02 0.27069365493E+02 0.27187761895E+02 0.27302844020E+02
 0.27384988816E+02 0.27414611869E+02 0.27384988816E+02 0.27302844020E+02 0.27187761895E+02
 0.27069365493E+02 0.26980592142E+02 0.26947654812E+02 0.26980592142E+02 0.27069365493E+02
 0.27187761895E+02 0.27302844020E+02 0.27384988816E+02 0.27414611869E+02 0.27384988816E+02
 0.27302844020E+02 0.27187761895E+02 0.27069365493E+02 0.26980592142E+02 0.21348830991E+02
 0.21408986168E+02 0.21583741961E+02 0.21858150900E+02 0.22213194213E+02 0.22630983562E+02
 0.23097935757E+02 0.23606158436E+02 0.24154593799E+02 0.24750386165E+02 0.25408623950E+02
 0.26147799946E+02 0.26980592142E+02 0.27903416948E+02 0.28890266378E+02 0.29894502428E+02
 0.30857837080E+02 0.31722255019E+02 0.32440646709E+02 0.32984512021E+02 0.33349018232E+02
 0.33554865063E+02 0.33644316340E+02 0.33669045534E+02 0.33671760266E+02 0.33669045534E+02
 0.33644316340E+02 0.33554865063E+02 0.33349018232E+02 0.32984512021E+02 0.32440646709E+02
 0.31722255019E+02 0.30857837080E+02 0.29894502428E+02 0.28890266378E+02 0.27903416948E+02
 0.26980592142E+02 0.26147799946E+02 0.25408623950E+02 0.24750386165E+02 0.24154593799E+02
 0.23606158436E+02 0.23097935757E+02 0.22630983562E+02 0.22213194213E+02 0.21858150900E+02
 0.21583741961E+02 0.21408986168E+02 0.16865760869E+02 0.16942919702E+02 0.17171944523E+02
 0.17546717716E+02 0.18060223960E+02 0.18706892809E+02 0.19483383508E+02 0.20388549042E+02
 0.21424242000E+02 0.22597301821E+02 0.23920450758E+02 0.25408623950E+02 0.27069365493E+02
 0.28890266378E+02 0.30829549299E+02 0.32815054551E+02 0.34752629405E+02 0.36540744417E+02
 0.38087093693E+02 0.39324554754E+02 0.40224836268E+02 0.40806193169E+02 0.41129016689E+02
 0.41275058631E+02 0.41314521815E+02 0.41275058631E+02 0.41129016689E+02 0.40806193169E+02
 0.40224836268E+02 0.39324554754E+02 0.38087093693E+02 0.36540744417E+02 0.34752629405E+02
 0.32815054551E+02 0.30829549299E+02 0.28890266378E+02 0.27069365493E+02 0.25408623950E+02
 0.23920450758E+02 0.22597301821E+02 0.21424242000E+02 0.20388549042E+02 0.19483383508E+02
 0.18706892809E+02 0.18060223960E+02 0.17546717716E+02 0.17171944523E+02 0.16942919702E+02
 0.13358617926E+02 0.13444208391E+02 0.13701132817E+02 0.14130559603E+02 0.14736118547E+02
 0.15524645934E+02 0.16505467835E+02 0.17689176074E+02 0.19087820042E+02 0.20717011692E+02
 0.22597301821E+02 0.24750386165E+02 0.27187761895E+02 0.29894502428E+02 0.32815054551E+02
 0.35848090487E+02 0.38853580832E+02 0.41670633265E+02 0.44142472876E+02 0.46145105050E+02
 0.47615272071E+02 0.48568997661E+02 0.49097996093E+02 0.49335535240E+02 0.49399127293E+02
 0.49335535240E+02 0.49097996093E+02 0.48568997661E+02 0.47615272071E+02 0.46145105050E+02
 0.44142472876E+02 0.41670633265E+02 0.38853580832E+02 0.35848090487E+02 0.32815054551E+02
 0.29894502428E+02 0.27187761895E+02 0.24750386165E+02 0.22597301821E+02 0.20717011692E+02
 0.19087820042E+02 0.17689176074E+02 0.16505467835E+02 0.15524645934E+02 0.14736118547E+02
 0.14130559603E+02 0.13701132817E+02 0.13444208391E+02 0.10642329862E+02 0.10730609318E+02
 0.10997704419E+02 0.11450716619E+02 0.12102248546E+02 0.12970428818E+02 0.14077513448E+02
 0.15447894086E+02 0.17107835110E+02 0.19087820042E+02 0.21424242000E+02 0.24154593799E+02
 0.27302844020E+02 0.30857837080E+02 0.34752629405E+02 0.38853580832E+02 0.42965072263E+02
 0.46851172173E+02 0.50271876887E+02 0.53029422812E+02 0.55016897004E+02 0.56251333344E+02
 0.56847303982E+02 0.57031569167E+02 0.57056791970E+02 0.57031569167E+02 0.56847303982E+02
 0.56251333344E+02 0.55016897004E+02 0.53029422812E+02 0.50271876887E+02 0.46851172173E+02
 0.42965072263E+02 0.38853580832E+02 0.34752629405E+02 0.30857837080E+02 0.27302844020E+02
 0.24154593799E+02 0.21424242000E+02 0.19087820042E+02 0.17107835110E+02 0.15447894086E+02
 0.14077513448E+02 0.12970428818E+02 0.12102248546E+02 0.11450716619E+02 0.10997704419E+02
 0.10730609318E+02 0.85473282983E+01 0.86351149303E+01 0.89024208069E+01 0.93609964056E+01
 0.10030418758E+02 0.10938017185E+02 0.12117546919E+02 0.13606920219E+02 0.15447894086E+02
 0.17689176074E+02 0.20388549042E+02 0.23606158436E+02 0.27384988816E+02 0.31722255019E+02
 0.36540744417E+02 0.41670633265E+02 0.46851172173E+02 0.51757447764E+02 0.56050929719E+02
 0.59446553525E+02 0.61691771732E+02 0.62652333234E+02 0.62625016164E+02 0.62211635151E+02
 0.61994194682E+02 0.62211635151E+02 0.62625016164E+02 0.62652333234E+02 0.61691771732E+02
 0.59446553525E+02 0.56050929719E+02 0.51757447764E+02 0.46851172173E+02 0.41670633265E+02
 0.36540744417E+02 0.31722255019E+02 0.27384988816E+02 0.23606158436E+02 0.20388549042E+02
 0.17689176074E+02 0.15447894086E+02 0.13606920219E+02 0.12117546919E+02 0.10938017185E+02
 0.10030418758E+02 0.93609964056E+01 0.89024208069E+01 0.86351149303E+01 0.69440925300E+01
 0.70298998262E+01 0.72926070936E+01 0.77474572236E+01 0.84190224424E+01 0.93414363814E+01
 0.10557702235E+02 0.12117546919E+02 0.14077513448E+02 0.16505467835E+02 0.19483383508E+02
 0.23097935757E+02 0.27414611869E+02 0.32440646709E+02 0.38087093693E+02 0.44142472876E+02
 0.50271876887E+02 0.56050929719E+02 0.61027513608E+02 0.64578409364E+02 0.66077672135E+02
 0.65559750728E+02 0.63796883124E+02 0.61996966037E+02 0.61251046844E+02 0.61996966037E+02
 0.63796883124E+02 0.65559750728E+02 0.66077672135E+02 0.64578409364E+02 0.61027513608E+02
 0.56050929719E+02 0.50271876887E+02 0.44142472876E+02 0.38087093693E+02 0.32440646709E+02
 0.27414611869E+02 0.23097935757E+02 0.19483383508E+02 0.16505467835E+02 0.14077513448E+02
 0.12117546919E+02 0.10557702235E+02 0.93414363814E+01 0.84190224424E+01 0.77474572236E+01
 0.72926070936E+01 0.70298998262E+01 0.57379319588E+01 0.58211109229E+01 0.60770123990E+01
 0.65235178862E+01 0.71886778484E+01 0.81113628320E+01 0.93414363814E+01 0.10938017185E+02
 0.12970428818E+02 0.15524645934E+02 0.18706892809E+02 0.22630983562E+02 0.27384988816E+02
 0.32984512021E+02 0.39324554754E+02 0.46145105050E+02 0.53029422812E+02 0.59446553525E+02
 0.64578409364E+02 0.67177918985E+02 0.66576926020E+02 0.63170368862E+02 0.58418656579E+02
 0.54360803411E+02 0.52773455101E+02 0.54360803411E+02 0.58418656579E+02 0.63170368862E+02
 0.66576926020E+02 0.67177918985E+02 0.64578409364E+02 0.59446553525E+02 0.53029422812E+02
 0.46145105050E+02 0.39324554754E+02 0.32984512021E+02 0.27384988816E+02 0.22630983562E+02
 0.18706892809E+02 0.15524645934E+02 0.12970428818E+02 0.10938017185E+02 0.93414363814E+01
 0.81113628320E+01 0.71886778484E+01 0.65235178862E+01 0.60770123990E+01 0.58211109229E+01
 0.48549851821E+01 0.49352338901E+01 0.51832674623E+01 0.56191472796E+01 0.62735641456E+01
 0.71886778484E+01 0.84190224424E+01 0.10030418758E+02 0.12102248546E+02 0.14736118547E+02
 0.18060223960E+02 0.22213194213E+02 0.27302844020E+02 0.33349018232E+02 0.40224836268E+02
 0.47615272071E+02 0.55016897004E+02 0.61691771732E+02 0.66077672135E+02 0.66576926020E+02
 0.62603535206E+02 0.55047288775E+02 0.46221489447E+02 0.39165791227E+02 0.36473746593E+02
 0.39165791227E+02 0.46221489447E+02 0.55047288775E+02 0.62603535206E+02 0.66576926020E+02
 0.66077672135E+02 0.61691771732E+02 0.55016897004E+02 0.47615272071E+02 0.40224836268E+02
 0.33349018232E+02 0.27302844020E+02 0.22213194213E+02 0.18060223960E+02 0.14736118547E+02
 0.12102248546E+02 0.10030418758E+02 0.84190224424E+01 0.71886778484E+01 0.62735641456E+01
 0.56191472796E+01 0.51832674623E+01 0.49352338901E+01 0.42350020568E+01 0.43123041514E+01
 0.45522878012E+01 0.49769207251E+01 0.56191472796E+01 0.65235178862E+01 0.77474572236E+01
 0.93609964056E+01 0.11450716619E+02 0.14130559603E+02 0.17546717716E+02 0.21858150900E+02
 0.27187761895E+02 0.33554865063E+02 0.40806193169E+02 0.48568997661E+02 0.56251333344E+02
 0.62652333234E+02 0.65559750728E+02 0.63170368862E+02 0.55047288775E+02 0.42642165450E+02
 0.29185256361E+02 0.18772035463E+02 0.14850885765E+02 0.18772035463E+02 0.29185256361E+02
 0.42642165450E+02 0.55047288775E+02 0.63170368862E+02 0.65559750728E+02 0.62652333234E+02
 0.56251333344E+02 0.48568997661E+02 0.40806193169E+02 0.33554865063E+02 0.27187761895E+02
 0.21858150900E+02 0.17546717716E+02 0.14130559603E+02 0.11450716619E+02 0.93609964056E+01
 0.77474572236E+01 0.65235178862E+01 0.56191472796E+01 0.49769207251E+01 0.45522878012E+01
 0.43123041514E+01 0.38300910262E+01 0.39048410388E+01 0.41377505574E+01 0.45522878012E+01
 0.51832674623E+01 0.60770123990E+01 0.72926070936E+01 0.89024208069E+01 0.10997704419E+02
 0.13701132817E+02 0.17171944523E+02 0.21583741961E+02 0.27069365493E+02 0.33644316340E+02
 0.41129016689E+02 0.49097996093E+02 0.56847303982E+02 0.62625016164E+02 0.63796883124E+02
 0.58418656579E+02 0.46221489447E+02 0.29185256361E+02 0.11375064516E+02 -.21656391196E+01
 -.72268650874E+01 -.21656391196E+01 0.11375064516E+02 0.29185256361E+02 0.46221489447E+02
 0.58418656579E+02 0.63796883124E+02 0.62625016164E+02 0.56847303982E+02 0.49097996093E+02
 0.41129016689E+02 0.33644316340E+02 0.27069365493E+02 0.21583741961E+02 0.17171944523E+02
 0.13701132817E+02 0.10997704419E+02 0.89024208069E+01 0.72926070936E+01 0.60770123990E+01
 0.51832674623E+01 0.45522878012E+01 0.41377505574E+01 0.39048410388E+01 0.36037579841E+01
 0.36767838726E+01 0.39048410388E+01 0.43123041514E+01 0.49352338901E+01 0.58211109229E+01
 0.70298998262E+01 0.86351149303E+01 0.10730609318E+02 0.13444208391E+02 0.16942919702E+02
 0.21408986168E+02 0.26980592142E+02 0.33669045534E+02 0.41275058631E+02 0.49335535240E+02
 0.57031569167E+02 0.62211635151E+02 0.61996966037E+02 0.54360803411E+02 0.39165791227E+02
 0.18772035463E+02 -.21656391196E+01 -.17940875650E+02 -.23814522327E+02 -.17940875650E+02
 -.21656391196E+01 0.18772035463E+02 0.39165791227E+02 0.54360803411E+02 0.61996966037E+02
 0.62211635151E+02 0.57031569167E+02 0.49335535240E+02 0.41275058631E+02 0.33669045534E+02
 0.26980592142E+02 0.21408986168E+02 0.16942919702E+02 0.13444208391E+02 0.10730609318E+02
 0.86351149303E+01 0.70298998262E+01 0.58211109229E+01 0.49352338901E+01 0.43123041514E+01
 0.39048410388E+01 0.36767838726E+01 0.35313381525E+01 0.36037579841E+01 0.38300910262E+01
 0.42350020568E+01 0.48549851821E+01 0.57379319588E+01 0.69440925300E+01 0.85473282983E+01
 0.10642329862E+02 0.13358617926E+02 0.16865760869E+02 0.21348830991E+02 0.26947654812E+02
 0.33671760266E+02 0.41314521815E+02 0.49399127293E+02 0.57056791970E+02 0.61994194682E+02
 0.61251046844E+02 0.52773455101E+02 0.36473746593E+02 0.14850885765E+02 -.72268650874E+01
 -.23814522327E+02 -.29983163506E+02 -.23814522327E+02 -.72268650874E+01 0.14850885765E+02
 0.36473746593E+02 0.52773455101E+02 0.61251046844E+02 0.61994194682E+02 0.57056791970E+02
 0.49399127293E+02 0.41314521815E+02 0.33671760266E+02 0.26947654812E+02 0.21348830991E+02
 0.16865760869E+02 0.13358617926E+02 0.10642329862E+02 0.85473282983E+01 0.69440925300E+01
 0.57379319588E+01 0.48549851821E+01 0.42350020568E+01 0.38300910262E+01 0.36037579841E+01
 0.36037579841E+01 0.36767838726E+01 0.39048410388E+01 0.43123041514E+01 0.49352338901E+01
 0.58211109229E+01 0.70298998262E+01 0.86351149303E+01 0.10730609318E+02 0.13444208391E+02
 0.16942919702E+02 0.21408986168E+02 0.26980592142E+02 0.33669045534E+02 0.41275058631E+02
 0.49335535240E+02 0.57031569167E+02 0.62211635151E+02 0.61996966037E+02 0.54360803411E+02
 0.39165791227E+02 0.18772035463E+02 -.21656391196E+01 -.17940875650E+02 -.23814522327E+02
 -.17940875650E+02 -.21656391196E+01 0.18772035463E+02 0.39165791227E+02 0.54360803411E+02
 0.61996966037E+02 0.62211635151E+02 0.57031569167E+02 0.49335535240E+02 0.41275058631E+02
 0.33669045534E+02 0.26980592142E+02 0.21408986168E+02 0.16942919702E+02 0.13444208391E+02
 0.10730609318E+02 0.86351149303E+01 0.70298998262E+01 0.58211109229E+01 0.49352338901E+01
 0.43123041514E+01 0.39048410388E+01 0.36767838726E+01 0.38300910262E+01 0.39048410388E+01
 0.41377505574E+01 0.45522878012E+01 0.51832674623E+01 0.60770123990E+01 0.72926070936E+01
 0.89024208069E+01 0.10997704419E+02 0.13701132817E+02 0.17171944523E+02 0.21583741961E+02
 0.27069365493E+02 0.33644316340E+02 0.41129016689E+02 0.49097996093E+02 0.56847303982E+02
 0.62625016164E+02 0.63796883124E+02 0.58418656579E+02 0.46221489447E+02 0.29185256361E+02
 0.11375064516E+02 -.21656391196E+01 -.72268650874E+01 -.21656391196E+01 0.11375064516E+02
 0.29185256361E+02 0.46221489447E+02 0.58418656579E+02 0.63796883124E+02 0.62625016164E+02
 0.56847303982E+02 0.49097996093E+02 0.41129016689E+02 0.33644316340E+02 0.27069365493E+02
 0.21583741961E+02 0.17171944523E+02 0.13701132817E+02 0.10997704419E+02 0.89024208069E+01
 0.72926070936E+01 0.60770123990E+01 0.51832674623E+01 0.45522878012E+01 0.41377505574E+01
 0.39048410388E+01 0.42350020568E+01 0.43123041514E+01 0.45522878012E+01 0.49769207251E+01
 0.56191472796E+01 0.65235178862E+01 0.77474572236E+01 0.93609964056E+01 0.11450716619E+02
 0.14130559603E+02 0.17546717716E+02 0.21858150900E+02 0.27187761895E+02 0.33554865063E+02
 0.40806193169E+02 0.48568997661E+02 0.56251333344E+02 0.62652333234E+02 0.65559750728E+02
 0.63170368862E+02 0.55047288775E+02 0.42642165450E+02 0.29185256361E+02 0.18772035463E+02
 0.14850885765E+02 0.18772035463E+02 0.29185256361E+02 0.42642165450E+02 0.55047288775E+02
 0.63170368862E+02 0.65559750728E+02 0.62652333234E+02 0.56251333344E+02 0.48568997661E+02
 0.40806193169E+02 0.33554865063E+02 0.27187761895E+02 0.21858150900E+02 0.17546717716E+02
 0.14130559603E+02 0.11450716619E+02 0.93609964056E+01 0.77474572236E+01 0.65235178862E+01
 0.56191472796E+01 0.49769207251E+01 0.45522878012E+01 0.43123041514E+01 0.48549851821E+01
 0.49352338901E+01 0.51832674623E+01 0.56191472796E+01 0.62735641456E+01 0.71886778484E+01
 0.84190224424E+01 0.10030418758E+02 0.12102248546E+02 0.14736118547E+02 0.18060223960E+02
 0.22213194213E+02 0.27302844020E+02 0.33349018232E+02 0.40224836268E+02 0.47615272071E+02
 0.55016897004E+02 0.61691771732E+02 0.66077672135E+02 0.66576926020E+02 0.62603535206E+02
 0.55047288775E+02 0.46221489447E+02 0.39165791227E+02 0.36473746593E+02 0.39165791227E+02
 0.46221489447E+02 0.55047288775E+02 0.62603535206E+02 0.66576926020E+02 0.66077672135E+02
 0.61691771732E+02 0.55016897004E+02 0.47615272071E+02 0.40224836268E+02 0.33349018232E+02
 0.27302844020E+02 0.22213194213E+02 0.18060223960E+02 0.14736118547E+02 0.12102248546E+02
 0.10030418758E+02 0.84190224424E+01 0.71886778484E+01 0.62735641456E+01 0.56191472796E+01
 0.51832674623E+01 0.49352338901E+01 0.57379319588E+01 0.58211109229E+01 0.60770123990E+01
 0.65235178862E+01 0.71886778484E+01 0.81113628320E+01 0.93414363814E+01 0.10938017185E+02
 0.12970428818E+02 0.15524645934E+02 0.18706892809E+02 0.22630983562E+02 0.27384988816E+02
 0.32984512021E+02 0.39324554754E+02 0.46145105050E+02 0.53029422812E+02 0.59446553525E+02
 0.64578409364E+02 0.67177918985E+02 0.66576926020E+02 0.63170368862E+02 0.58418656579E+02
 0.54360803411E+02 0.52773455101E+02 0.54360803411E+02 0.58418656579E+02 0.63170368862E+02
 0.66576926020E+02 0.67177918985E+02 0.64578409364E+02 0.59446553525E+02 0.53029422812E+02
 0.46145105050E+02 0.39324554754E+02 0.32984512021E+02 0.27384988816E+02 0.22630983562E+02
 0.18706892809E+02 0.15524645934E+02 0.12970428818E+02 0.10938017185E+02 0.93414363814E+01
 0.81113628320E+01 0.71886778484E+01 0.65235178862E+01 0.60770123990E+01 0.58211109229E+01
 0.69440925300E+01 0.70298998262E+01 0.72926070936E+01 0.77474572236E+01 0.84190224424E+01
 0.93414363814E+01 0.10557702235E+02 0.12117546919E+02 0.14077513448E+02 0.16505467835E+02
 0.19483383508E+02 0.23097935757E+02 0.27414611869E+02 0.32440646709E+02 0.38087093693E+02
 0.44142472876E+02 0.50271876887E+02 0.56050929719E+02 0.61027513608E+02 0.64578409364E+02
 0.66077672135E+02 0.65559750728E+02 0.63796883124E+02 0.61996966037E+02 0.61251046844E+02
 0.61996966037E+02 0.63796883124E+02 0.65559750728E+02 0.66077672135E+02 0.64578409364E+02
 0.61027513608E+02 0.56050929719E+02 0.50271876887E+02 0.44142472876E+02 0.38087093693E+02
 0.32440646709E+02 0.27414611869E+02 0.23097935757E+02 0.19483383508E+02 0.16505467835E+02
 0.14077513448E+02 0.12117546919E+02 0.10557702235E+02 0.93414363814E+01 0.84190224424E+01
 0.77474572236E+01 0.72926070936E+01 0.70298998262E+01 0.85473282983E+01 0.86351149303E+01
 0.89024208069E+01 0.93609964056E+01 0.10030418758E+02 0.10938017185E+02 0.12117546919E+02
 0.13606920219E+02 0.15447894086E+02 0.17689176074E+02 0.20388549042E+02 0.23606158436E+02
 0.27384988816E+02 0.31722255019E+02 0.36540744417E+02 0.41670633265E+02 0.46851172173E+02
 0.51757447764E+02 0.56050929719E+02 0.59446553525E+02 0.61691771732E+02 0.62652333234E+02
 0.62625016164E+02 0.62211635151E+02 0.61994194682E+02 0.62211635151E+02 0.62625016164E+02
 0.62652333234E+02 0.61691771732E+02 0.59446553525E+02 0.56050929719E+02 0.51757447764E+02
 0.46851172173E+02 0.41670633265E+02 0.36540744417E+02 0.31722255019E+02 0.27384988816E+02
 0.23606158436E+02 0.20388549042E+02 0.17689176074E+02 0.15447894086E+02 0.13606920219E+02
 0.12117546919E+02 0.10938017185E+02 0.10030418758E+02 0.93609964056E+01 0.89024208069E+01
 0.86351149303E+01 0.10642329862E+02 0.10730609318E+02 0.10997704419E+02 0.11450716619E+02
 0.12102248546E+02 0.12970428818E+02 0.14077513448E+02 0.15447894086E+02 0.17107835110E+02
 0.19087820042E+02 0.21424242000E+02 0.24154593799E+02 0.27302844020E+02 0.30857837080E+02
 0.34752629405E+02 0.38853580832E+02 0.42965072263E+02 0.46851172173E+02 0.50271876887E+02
 0.53029422812E+02 0.55016897004E+02 0.56251333344E+02 0.56847303982E+02 0.57031569167E+02
 0.57056791970E+02 0.57031569167E+02 0.56847303982E+02 0.56251333344E+02 0.55016897004E+02
 0.53029422812E+02 0.50271876887E+02 0.46851172173E+02 0.42965072263E+02 0.38853580832E+02
 0.34752629405E+02 0.30857837080E+02 0.27302844020E+02 0.24154593799E+02 0.21424242000E+02
 0.19087820042E+02 0.17107835110E+02 0.15447894086E+02 0.14077513448E+02 0.12970428818E+02
 0.12102248546E+02 0.11450716619E+02 0.10997704419E+02 0.10730609318E+02 0.13358617926E+02
 0.13444208391E+02 0.13701132817E+02 0.14130559603E+02 0.14736118547E+02 0.15524645934E+02
 0.16505467835E+02 0.17689176074E+02 0.19087820042E+02 0.20717011692E+02 0.22597301821E+02
 0.24750386165E+02 0.27187761895E+02 0.29894502428E+02 0.32815054551E+02 0.35848090487E+02
 0.38853580832E+02 0.41670633265E+02 0.44142472876E+02 0.46145105050E+02 0.47615272071E+02
 0.48568997661E+02 0.49097996093E+02 0.49335535240E+02 0.49399127293E+02 0.49335535240E+02
 0.49097996093E+02 0.48568997661E+02 0.47615272071E+02 0.46145105050E+02 0.44142472876E+02
 0.41670633265E+02 0.38853580832E+02 0.35848090487E+02 0.32815054551E+02 0.29894502428E+02