   8   8   0   0
  0.2000000E+02  0.5428835E-09  0.5428835E-09  0.5428835E-09  0.5000000E-15
  1.000000000000000E-004
  CAR 
 unknown system                          
     12.03406960     -8.09565925 1000      5.78886656      1.00000000
     -8.096  0.0000E+00  0.0000E+00
     -8.076  0.0000E+00  0.0000E+00
     -8.055  0.0000E+00  0.0000E+00
     -8.035  0.0000E+00  0.0000E+00
     -8.015  0.0000E+00  0.0000E+00
     -7.995  0.0000E+00  0.0000E+00
     -7.975  0.0000E+00  0.0000E+00
     -7.955  0.0000E+00  0.0000E+00
     -7.934  0.0000E+00  0.0000E+00
     -7.914  0.0000E+00  0.0000E+00
     -7.894  0.0000E+00  0.0000E+00
     -7.874  0.0000E+00  0.0000E+00
     -7.854  0.0000E+00  0.0000E+00
     -7.834  0.0000E+00  0.0000E+00
     -7.814  0.0000E+00  0.0000E+00
     -7.793  0.0000E+00  0.0000E+00
     -7.773  0.0000E+00  0.0000E+00
     -7.753  0.0000E+00  0.0000E+00
     -7.733  0.0000E+00  0.0000E+00
     -7.713  0.0000E+00  0.0000E+00
     -7.693  0.0000E+00  0.0000E+00
     -7.673  0.0000E+00  0.0000E+00
     -7.652  0.0000E+00  0.0000E+00
     -7.632  0.0000E+00  0.0000E+00
     -7.612  0.0000E+00  0.0000E+00
     -7.592  0.0000E+00  0.0000E+00
     -7.572  0.0000E+00  0.0000E+00
     -7.552  0.0000E+00  0.0000E+00
     -7.531  0.0000E+00  0.0000E+00
     -7.511  0.0000E+00  0.0000E+00
     -7.491  0.0000E+00  0.0000E+00
     -7.471  0.0000E+00  0.0000E+00
     -7.451  0.0000E+00  0.0000E+00
     -7.431  0.0000E+00  0.0000E+00
     -7.411  0.0000E+00  0.0000E+00
     -7.390  0.0000E+00  0.0000E+00
     -7.370  0.0000E+00  0.0000E+00
     -7.350  0.0000E+00  0.0000E+00
     -7.330  0.0000E+00  0.0000E+00
     -7.310  0.0000E+00  0.0000E+00
     -7.290  0.0000E+00  0.0000E+00
     -7.270  0.0000E+00  0.0000E+00
     -7.249  0.0000E+00  0.0000E+00
     -7.229  0.0000E+00  0.0000E+00
     -7.209  0.0000E+00  0.0000E+00
     -7.189  0.0000E+00  0.0000E+00
     -7.169  0.0000E+00  0.0000E+00
     -7.149  0.0000E+00  0.0000E+00
     -7.128  0.0000E+00  0.0000E+00
     -7.108  0.0000E+00  0.0000E+00
     -7.088  0.0000E+00  0.0000E+00
     -7.068  0.0000E+00  0.0000E+00
     -7.048  0.0000E+00  0.0000E+00
     -7.028  0.0000E+00  0.0000E+00
     -7.008  0.0000E+00  0.0000E+00
     -6.987  0.0000E+00  0.0000E+00
     -6.967  0.0000E+00  0.0000E+00
     -6.947  0.0000E+00  0.0000E+00
     -6.927  0.0000E+00  0.0000E+00
     -6.907  0.0000E+00  0.0000E+00
     -6.887  0.0000E+00  0.0000E+00
     -6.867  0.0000E+00  0.0000E+00
     -6.846  0.0000E+00  0.0000E+00
     -6.826  0.0000E+00  0.0000E+00
     -6.806  0.0000E+00  0.0000E+00
     -6.786  0.0000E+00  0.0000E+00
     -6.766  0.0000E+00  0.0000E+00
     -6.746  0.0000E+00  0.0000E+00
     -6.725  0.0000E+00  0.0000E+00
     -6.705  0.0000E+00  0.0000E+00
     -6.685  0.0000E+00  0.0000E+00
     -6.665  0.0000E+00  0.0000E+00
     -6.645  0.0000E+00  0.0000E+00
     -6.625  0.0000E+00  0.0000E+00
     -6.605  0.0000E+00  0.0000E+00
     -6.584  0.0000E+00  0.0000E+00
     -6.564  0.0000E+00  0.0000E+00
     -6.544  0.0000E+00  0.0000E+00
     -6.524  0.0000E+00  0.0000E+00
     -6.504  0.0000E+00  0.0000E+00
     -6.484  0.0000E+00  0.0000E+00
     -6.464  0.0000E+00  0.0000E+00
     -6.443  0.0000E+00  0.0000E+00
     -6.423  0.0000E+00  0.0000E+00
     -6.403  0.0000E+00  0.0000E+00
     -6.383  0.0000E+00  0.0000E+00
     -6.363  0.0000E+00  0.0000E+00
     -6.343  0.0000E+00  0.0000E+00
     -6.322  0.0000E+00  0.0000E+00
     -6.302  0.0000E+00  0.0000E+00
     -6.282  0.0000E+00  0.0000E+00
     -6.262  0.0000E+00  0.0000E+00
     -6.242  0.0000E+00  0.0000E+00
     -6.222  0.0000E+00  0.0000E+00
     -6.202  0.0000E+00  0.0000E+00
     -6.181  0.0000E+00  0.0000E+00
     -6.161  0.0000E+00  0.0000E+00
     -6.141  0.0000E+00  0.0000E+00
     -6.121  0.0000E+00  0.0000E+00
     -6.101  0.0000E+00  0.0000E+00
     -6.081  0.1870E+00  0.4423E-02
     -6.061  0.2624E+00  0.8934E-02
     -6.040  0.3476E+00  0.1506E-01
     -6.020  0.4426E+00  0.2301E-01
     -6.000  0.4532E+00  0.3231E-01
     -5.980  0.4915E+00  0.4184E-01
     -5.960  0.5249E+00  0.5209E-01
     -5.940  0.5535E+00  0.6296E-01
     -5.919  0.5786E+00  0.7436E-01
     -5.899  0.6178E+00  0.8641E-01
     -5.879  0.6597E+00  0.9928E-01
     -5.859  0.7043E+00  0.1130E+00
     -5.839  0.7515E+00  0.1277E+00
     -5.819  0.7607E+00  0.1428E+00
     -5.799  0.7834E+00  0.1584E+00
     -5.778  0.8023E+00  0.1744E+00
     -5.758  0.8174E+00  0.1907E+00
     -5.738  0.8356E+00  0.2073E+00
     -5.718  0.8594E+00  0.2244E+00
     -5.698  0.8845E+00  0.2420E+00
     -5.678  0.9111E+00  0.2601E+00
     -5.658  0.9389E+00  0.2787E+00
     -5.637  0.9669E+00  0.2979E+00
     -5.617  0.9949E+00  0.3177E+00
     -5.597  0.1023E+01  0.3380E+00
     -5.577  0.1051E+01  0.3589E+00
     -5.557  0.1061E+01  0.3801E+00
     -5.537  0.1078E+01  0.4017E+00
     -5.516  0.1094E+01  0.4236E+00
     -5.496  0.1109E+01  0.4458E+00
     -5.476  0.1125E+01  0.4682E+00
     -5.456  0.1144E+01  0.4911E+00
     -5.436  0.1163E+01  0.5144E+00
     -5.416  0.1182E+01  0.5380E+00
     -5.396  0.1202E+01  0.5620E+00
     -5.375  0.1221E+01  0.5864E+00
     -5.355  0.1241E+01  0.6112E+00
     -5.335  0.1260E+01  0.6364E+00
     -5.315  0.1281E+01  0.6620E+00
     -5.295  0.1303E+01  0.6880E+00
     -5.275  0.1326E+01  0.7145E+00
     -5.255  0.1350E+01  0.7414E+00
     -5.234  0.1374E+01  0.7689E+00
     -5.214  0.1685E+01  0.8068E+00
     -5.194  0.1738E+01  0.8413E+00
     -5.174  0.1783E+01  0.8768E+00
     -5.154  0.1819E+01  0.9131E+00
     -5.134  0.1665E+01  0.9477E+00
     -5.113  0.1638E+01  0.9810E+00
     -5.093  0.1611E+01  0.1014E+01
     -5.073  0.1583E+01  0.1046E+01
     -5.053  0.1571E+01  0.1078E+01
     -5.033  0.1563E+01  0.1109E+01
     -5.013  0.1553E+01  0.1141E+01
     -4.993  0.1541E+01  0.1172E+01
     -4.972  0.1466E+01  0.1202E+01
     -4.952  0.1432E+01  0.1231E+01
     -4.932  0.1399E+01  0.1260E+01
     -4.912  0.1367E+01  0.1288E+01
     -4.892  0.1351E+01  0.1315E+01
     -4.872  0.1331E+01  0.1342E+01
     -4.852  0.1312E+01  0.1369E+01
     -4.831  0.1291E+01  0.1395E+01
     -4.811  0.1270E+01  0.1421E+01
     -4.791  0.1640E+01  0.1456E+01
     -4.771  0.1731E+01  0.1490E+01
     -4.751  0.1829E+01  0.1526E+01
     -4.731  0.1905E+01  0.1563E+01
     -4.710  0.1793E+01  0.1600E+01
     -4.690  0.1803E+01  0.1636E+01
     -4.670  0.1815E+01  0.1673E+01
     -4.650  0.1830E+01  0.1709E+01
     -4.630  0.1869E+01  0.1747E+01
     -4.610  0.1911E+01  0.1785E+01
     -4.590  0.1954E+01  0.1824E+01
     -4.569  0.1945E+01  0.1863E+01
     -4.549  0.1956E+01  0.1903E+01
     -4.529  0.1974E+01  0.1942E+01
     -4.509  0.1987E+01  0.1982E+01
     -4.489  0.2015E+01  0.2023E+01
     -4.469  0.2044E+01  0.2063E+01
     -4.449  0.2073E+01  0.2105E+01
     -4.428  0.2207E+01  0.2154E+01
     -4.408  0.2193E+01  0.2198E+01
     -4.388  0.2182E+01  0.2242E+01
     -4.368  0.2088E+01  0.2286E+01
     -4.348  0.2112E+01  0.2328E+01
     -4.328  0.2200E+01  0.2372E+01
     -4.307  0.2246E+01  0.2416E+01
     -4.287  0.2283E+01  0.2462E+01
     -4.267  0.2303E+01  0.2508E+01
     -4.247  0.2293E+01  0.2555E+01
     -4.227  0.2309E+01  0.2601E+01
     -4.207  0.2324E+01  0.2648E+01
     -4.187  0.2339E+01  0.2695E+01
     -4.166  0.2367E+01  0.2742E+01
     -4.146  0.2382E+01  0.2790E+01
     -4.126  0.2395E+01  0.2838E+01
     -4.106  0.2408E+01  0.2886E+01
     -4.086  0.2432E+01  0.2935E+01
     -4.066  0.2556E+01  0.2986E+01
     -4.046  0.3094E+01  0.3054E+01
     -4.025  0.3107E+01  0.3117E+01
     -4.005  0.2869E+01  0.3178E+01
     -3.985  0.2867E+01  0.3236E+01
     -3.965  0.2860E+01  0.3294E+01
     -3.945  0.2848E+01  0.3351E+01
     -3.925  0.2727E+01  0.3410E+01
     -3.904  0.2706E+01  0.3465E+01
     -3.884  0.2670E+01  0.3519E+01
     -3.864  0.2643E+01  0.3572E+01
     -3.844  0.2632E+01  0.3626E+01
     -3.824  0.3019E+01  0.3687E+01
     -3.804  0.2901E+01  0.3746E+01
     -3.784  0.2788E+01  0.3804E+01
     -3.763  0.2590E+01  0.3862E+01
     -3.743  0.2709E+01  0.3915E+01
     -3.723  0.2860E+01  0.3971E+01
     -3.703  0.3810E+01  0.4038E+01
     -3.683  0.4864E+01  0.4125E+01
     -3.663  0.3959E+01  0.4215E+01
     -3.643  0.4091E+01  0.4296E+01
     -3.622  0.4088E+01  0.4378E+01
     -3.602  0.3847E+01  0.4458E+01
     -3.582  0.3187E+01  0.4533E+01
     -3.562  0.3140E+01  0.4597E+01
     -3.542  0.3078E+01  0.4659E+01
     -3.522  0.3012E+01  0.4721E+01
     -3.501  0.2986E+01  0.4781E+01
     -3.481  0.2988E+01  0.4841E+01
     -3.461  0.3040E+01  0.4902E+01
     -3.441  0.3101E+01  0.4964E+01
     -3.421  0.3197E+01  0.5027E+01
     -3.401  0.3321E+01  0.5093E+01
     -3.381  0.3478E+01  0.5161E+01
     -3.360  0.3673E+01  0.5233E+01
     -3.340  0.3748E+01  0.5308E+01
     -3.320  0.3012E+01  0.5378E+01
     -3.300  0.2945E+01  0.5438E+01
     -3.280  0.2870E+01  0.5496E+01
     -3.260  0.2799E+01  0.5553E+01
     -3.240  0.2760E+01  0.5609E+01
     -3.219  0.2724E+01  0.5665E+01
     -3.199  0.2689E+01  0.5719E+01
     -3.179  0.2657E+01  0.5773E+01
     -3.159  0.2534E+01  0.5825E+01
     -3.139  0.2517E+01  0.5876E+01
     -3.119  0.2498E+01  0.5927E+01
     -3.098  0.2484E+01  0.5977E+01
     -3.078  0.2472E+01  0.6027E+01
     -3.058  0.2728E+01  0.6078E+01
     -3.038  0.2714E+01  0.6133E+01
     -3.018  0.2590E+01  0.6187E+01
     -2.998  0.2562E+01  0.6238E+01
     -2.978  0.2635E+01  0.6290E+01
     -2.957  0.2753E+01  0.6345E+01
     -2.937  0.2898E+01  0.6402E+01
     -2.917  0.3148E+01  0.6462E+01
     -2.897  0.3932E+01  0.6527E+01
     -2.877  0.2586E+01  0.6583E+01
     -2.857  0.2487E+01  0.6634E+01
     -2.837  0.2398E+01  0.6683E+01
     -2.816  0.2319E+01  0.6730E+01
     -2.796  0.2250E+01  0.6776E+01
     -2.776  0.2191E+01  0.6821E+01
     -2.756  0.2131E+01  0.6865E+01
     -2.736  0.2078E+01  0.6907E+01
     -2.716  0.2029E+01  0.6948E+01
     -2.695  0.1985E+01  0.6989E+01
     -2.675  0.1944E+01  0.7028E+01
     -2.655  0.1933E+01  0.7068E+01
     -2.635  0.1900E+01  0.7106E+01
     -2.615  0.1815E+01  0.7143E+01
     -2.595  0.1793E+01  0.7180E+01
     -2.575  0.1770E+01  0.7216E+01
     -2.554  0.1747E+01  0.7251E+01
     -2.534  0.1723E+01  0.7286E+01
     -2.514  0.1699E+01  0.7320E+01
     -2.494  0.1674E+01  0.7354E+01
     -2.474  0.1654E+01  0.7388E+01
     -2.454  0.1664E+01  0.7421E+01
     -2.434  0.1679E+01  0.7455E+01
     -2.413  0.1692E+01  0.7489E+01
     -2.393  0.1704E+01  0.7523E+01
     -2.373  0.1734E+01  0.7558E+01
     -2.353  0.1789E+01  0.7593E+01
     -2.333  0.3354E+01  0.7656E+01
     -2.313  0.2992E+01  0.7764E+01
     -2.292  0.2335E+01  0.7818E+01
     -2.272  0.1768E+01  0.7859E+01
     -2.252  0.1324E+01  0.7890E+01
     -2.232  0.1134E+01  0.7914E+01
     -2.212  0.9577E+00  0.7935E+01
     -2.192  0.9727E+00  0.7953E+01
     -2.172  0.8247E+00  0.7971E+01
     -2.151  0.6847E+00  0.7987E+01
     -2.131  0.0000E+00  0.8000E+01
     -2.111  0.0000E+00  0.8000E+01
     -2.091  0.0000E+00  0.8000E+01
     -2.071  0.0000E+00  0.8000E+01
     -2.051  0.0000E+00  0.8000E+01
     -2.031  0.0000E+00  0.8000E+01
     -2.010  0.0000E+00  0.8000E+01
     -1.990  0.0000E+00  0.8000E+01
     -1.970  0.0000E+00  0.8000E+01
     -1.950  0.0000E+00  0.8000E+01
     -1.930  0.0000E+00  0.8000E+01
     -1.910  0.0000E+00  0.8000E+01
     -1.889  0.0000E+00  0.8000E+01
     -1.869  0.0000E+00  0.8000E+01
     -1.849  0.0000E+00  0.8000E+01
     -1.829  0.0000E+00  0.8000E+01
     -1.809  0.0000E+00  0.8000E+01
     -1.789  0.0000E+00  0.8000E+01
     -1.769  0.0000E+00  0.8000E+01
     -1.748  0.0000E+00  0.8000E+01
     -1.728  0.0000E+00  0.8000E+01
     -1.708  0.0000E+00  0.8000E+01
     -1.688  0.0000E+00  0.8000E+01
     -1.668  0.0000E+00  0.8000E+01
     -1.648  0.0000E+00  0.8000E+01
     -1.628  0.0000E+00  0.8000E+01
     -1.607  0.0000E+00  0.8000E+01
     -1.587  0.0000E+00  0.8000E+01
     -1.567  0.3372E+01  0.8041E+01
     -1.547  0.2582E+01  0.8091E+01
     -1.527  0.2505E+01  0.8143E+01
     -1.507  0.3771E+01  0.8206E+01
     -1.486  0.1960E+01  0.8264E+01
     -1.466  0.1808E+01  0.8302E+01
     -1.446  0.1699E+01  0.8337E+01
     -1.426  0.1703E+01  0.8371E+01
     -1.406  0.1706E+01  0.8406E+01
     -1.386  0.1708E+01  0.8440E+01
     -1.366  0.1711E+01  0.8474E+01
     -1.345  0.1705E+01  0.8509E+01
     -1.325  0.1690E+01  0.8543E+01
     -1.305  0.1715E+01  0.8577E+01
     -1.285  0.1752E+01  0.8612E+01
     -1.265  0.1792E+01  0.8648E+01
     -1.245  0.1836E+01  0.8684E+01
     -1.225  0.1882E+01  0.8722E+01
     -1.204  0.1941E+01  0.8760E+01
     -1.184  0.1983E+01  0.8800E+01
     -1.164  0.2025E+01  0.8840E+01
     -1.144  0.2067E+01  0.8882E+01
     -1.124  0.2108E+01  0.8924E+01
     -1.104  0.2146E+01  0.8966E+01
     -1.084  0.2827E+01  0.9022E+01
     -1.063  0.3708E+01  0.9085E+01
     -1.043  0.3813E+01  0.9162E+01
     -1.023  0.3993E+01  0.9240E+01
     -1.003  0.4500E+01  0.9325E+01
     -0.983  0.5804E+01  0.9427E+01
     -0.963  0.7058E+01  0.9556E+01
     -0.942  0.9374E+01  0.9721E+01
     -0.922  0.6833E+01  0.9889E+01
     -0.902  0.6356E+01  0.1002E+02
     -0.882  0.5765E+01  0.1014E+02
     -0.862  0.5556E+01  0.1026E+02
     -0.842  0.5388E+01  0.1037E+02
     -0.822  0.5140E+01  0.1048E+02
     -0.801  0.4763E+01  0.1058E+02
     -0.781  0.4719E+01  0.1067E+02
     -0.761  0.3815E+01  0.1076E+02
     -0.741  0.3696E+01  0.1083E+02
     -0.721  0.3630E+01  0.1090E+02
     -0.701  0.3563E+01  0.1098E+02
     -0.681  0.3494E+01  0.1105E+02
     -0.660  0.3425E+01  0.1112E+02
     -0.640  0.3355E+01  0.1119E+02
     -0.620  0.3284E+01  0.1125E+02
     -0.600  0.3191E+01  0.1132E+02
     -0.580  0.3112E+01  0.1138E+02
     -0.560  0.3029E+01  0.1144E+02
     -0.539  0.2945E+01  0.1150E+02
     -0.519  0.2842E+01  0.1156E+02
     -0.499  0.2764E+01  0.1162E+02
     -0.479  0.2708E+01  0.1167E+02
     -0.459  0.2654E+01  0.1173E+02
     -0.439  0.2623E+01  0.1178E+02
     -0.419  0.2587E+01  0.1183E+02
     -0.398  0.2552E+01  0.1189E+02
     -0.378  0.2515E+01  0.1194E+02
     -0.358  0.2550E+01  0.1199E+02
     -0.338  0.2486E+01  0.1204E+02
     -0.318  0.2423E+01  0.1209E+02
     -0.298  0.2364E+01  0.1214E+02
     -0.278  0.2323E+01  0.1218E+02
     -0.257  0.2285E+01  0.1223E+02
     -0.237  0.2249E+01  0.1227E+02
     -0.217  0.2215E+01  0.1232E+02
     -0.197  0.2182E+01  0.1236E+02
     -0.177  0.2150E+01  0.1241E+02
     -0.157  0.2163E+01  0.1245E+02
     -0.136  0.2133E+01  0.1249E+02
     -0.116  0.2031E+01  0.1254E+02
     -0.096  0.2023E+01  0.1258E+02
     -0.076  0.2017E+01  0.1262E+02
     -0.056  0.1997E+01  0.1266E+02
     -0.036  0.1970E+01  0.1270E+02
     -0.016  0.1938E+01  0.1274E+02
      0.005  0.1807E+01  0.1278E+02
      0.025  0.1786E+01  0.1282E+02
      0.045  0.1767E+01  0.1285E+02
      0.065  0.1749E+01  0.1289E+02
      0.085  0.1731E+01  0.1292E+02
      0.105  0.1715E+01  0.1296E+02
      0.125  0.1700E+01  0.1299E+02
      0.146  0.1686E+01  0.1303E+02
      0.166  0.1673E+01  0.1306E+02
      0.186  0.1662E+01  0.1309E+02
      0.206  0.1660E+01  0.1313E+02
      0.226  0.1658E+01  0.1316E+02
      0.246  0.1656E+01  0.1320E+02
      0.267  0.1653E+01  0.1323E+02
      0.287  0.1584E+01  0.1327E+02
      0.307  0.1577E+01  0.1331E+02
      0.327  0.1570E+01  0.1334E+02
      0.347  0.1566E+01  0.1337E+02
      0.367  0.1559E+01  0.1340E+02
      0.387  0.1550E+01  0.1343E+02
      0.408  0.1541E+01  0.1346E+02
      0.428  0.1531E+01  0.1349E+02
      0.448  0.1520E+01  0.1352E+02
      0.468  0.1509E+01  0.1355E+02
      0.488  0.1496E+01  0.1359E+02
      0.508  0.1483E+01  0.1362E+02
      0.528  0.1416E+01  0.1364E+02
      0.549  0.1405E+01  0.1367E+02
      0.569  0.1393E+01  0.1370E+02
      0.589  0.1381E+01  0.1373E+02
      0.609  0.1370E+01  0.1376E+02
      0.629  0.1358E+01  0.1378E+02
      0.649  0.1346E+01  0.1381E+02
      0.670  0.1334E+01  0.1384E+02
      0.690  0.1322E+01  0.1387E+02
      0.710  0.1309E+01  0.1389E+02
      0.730  0.1248E+01  0.1392E+02
      0.750  0.1239E+01  0.1394E+02
      0.770  0.1248E+01  0.1397E+02
      0.790  0.1236E+01  0.1400E+02
      0.811  0.1224E+01  0.1402E+02
      0.831  0.1212E+01  0.1405E+02
      0.851  0.1202E+01  0.1407E+02
      0.871  0.1191E+01  0.1410E+02
      0.891  0.1181E+01  0.1412E+02
      0.911  0.1171E+01  0.1414E+02
      0.931  0.1162E+01  0.1417E+02
      0.952  0.1153E+01  0.1419E+02
      0.972  0.1144E+01  0.1421E+02
      0.992  0.1136E+01  0.1424E+02
      1.012  0.1128E+01  0.1426E+02
      1.032  0.1120E+01  0.1428E+02
      1.052  0.1113E+01  0.1431E+02
      1.073  0.1106E+01  0.1433E+02
      1.093  0.1100E+01  0.1435E+02
      1.113  0.1095E+01  0.1437E+02
      1.133  0.1089E+01  0.1439E+02
      1.153  0.1085E+01  0.1442E+02
      1.173  0.1088E+01  0.1444E+02
      1.193  0.1086E+01  0.1446E+02
      1.214  0.1084E+01  0.1448E+02
      1.234  0.1083E+01  0.1450E+02
      1.254  0.1080E+01  0.1453E+02
      1.274  0.1145E+01  0.1455E+02
      1.294  0.1165E+01  0.1457E+02
      1.314  0.1188E+01  0.1459E+02
      1.334  0.1212E+01  0.1462E+02
      1.355  0.1243E+01  0.1464E+02
      1.375  0.1276E+01  0.1467E+02
      1.395  0.1317E+01  0.1469E+02
      1.415  0.1369E+01  0.1472E+02
      1.435  0.1430E+01  0.1475E+02
      1.455  0.1500E+01  0.1478E+02
      1.476  0.1580E+01  0.1481E+02
      1.496  0.2472E+01  0.1485E+02
      1.516  0.2311E+01  0.1490E+02
      1.536  0.2240E+01  0.1495E+02
      1.556  0.2202E+01  0.1499E+02
      1.576  0.2692E+01  0.1504E+02
      1.596  0.2775E+01  0.1510E+02
      1.617  0.2608E+01  0.1515E+02
      1.637  0.2481E+01  0.1520E+02
      1.657  0.2895E+01  0.1526E+02
      1.677  0.2951E+01  0.1531E+02
      1.697  0.3016E+01  0.1537E+02
      1.717  0.3092E+01  0.1544E+02
      1.737  0.4746E+01  0.1550E+02
      1.758  0.5713E+01  0.1561E+02
      1.778  0.5244E+01  0.1573E+02
      1.798  0.5294E+01  0.1583E+02
      1.818  0.5030E+01  0.1595E+02
      1.838  0.4957E+01  0.1605E+02
      1.858  0.4926E+01  0.1615E+02
      1.879  0.4886E+01  0.1626E+02
      1.899  0.4696E+01  0.1635E+02
      1.919  0.4532E+01  0.1645E+02
      1.939  0.4335E+01  0.1654E+02
      1.959  0.4185E+01  0.1662E+02
      1.979  0.4068E+01  0.1670E+02
      1.999  0.4014E+01  0.1679E+02
      2.020  0.3985E+01  0.1687E+02
      2.040  0.3896E+01  0.1695E+02
      2.060  0.3837E+01  0.1702E+02
      2.080  0.3779E+01  0.1710E+02
      2.100  0.3770E+01  0.1718E+02
      2.120  0.3785E+01  0.1725E+02
      2.140  0.3797E+01  0.1733E+02
      2.161  0.3807E+01  0.1741E+02
      2.181  0.3834E+01  0.1749E+02
      2.201  0.3866E+01  0.1757E+02
      2.221  0.3930E+01  0.1765E+02
      2.241  0.4006E+01  0.1773E+02
      2.261  0.4094E+01  0.1781E+02
      2.282  0.4301E+01  0.1790E+02
      2.302  0.4775E+01  0.1803E+02
      2.322  0.4799E+01  0.1813E+02
      2.342  0.4620E+01  0.1822E+02
      2.362  0.4550E+01  0.1832E+02
      2.382  0.4483E+01  0.1841E+02
      2.402  0.4426E+01  0.1850E+02
      2.423  0.4593E+01  0.1859E+02
      2.443  0.4144E+01  0.1868E+02
      2.463  0.4028E+01  0.1876E+02
      2.483  0.3984E+01  0.1884E+02
      2.503  0.3955E+01  0.1892E+02
      2.523  0.3937E+01  0.1900E+02
      2.543  0.4198E+01  0.1909E+02
      2.564  0.4203E+01  0.1917E+02
      2.584  0.4099E+01  0.1925E+02
      2.604  0.4040E+01  0.1934E+02
      2.624  0.3956E+01  0.1942E+02
      2.644  0.4030E+01  0.1950E+02
      2.664  0.4452E+01  0.1959E+02
      2.685  0.4815E+01  0.1968E+02
      2.705  0.4933E+01  0.1978E+02
      2.725  0.5002E+01  0.1988E+02
      2.745  0.5086E+01  0.1998E+02
      2.765  0.5166E+01  0.2008E+02
      2.785  0.4972E+01  0.2018E+02
      2.805  0.4984E+01  0.2028E+02
      2.826  0.4946E+01  0.2038E+02
      2.846  0.5106E+01  0.2049E+02
      2.866  0.5230E+01  0.2060E+02
      2.886  0.5264E+01  0.2070E+02
      2.906  0.5291E+01  0.2081E+02
      2.926  0.5247E+01  0.2091E+02
      2.946  0.6082E+01  0.2103E+02
      2.967  0.5966E+01  0.2115E+02
      2.987  0.5686E+01  0.2127E+02
      3.007  0.5586E+01  0.2138E+02
      3.027  0.4865E+01  0.2149E+02
      3.047  0.5111E+01  0.2159E+02
      3.067  0.5542E+01  0.2170E+02
      3.088  0.6225E+01  0.2181E+02
      3.108  0.7093E+01  0.2195E+02
      3.128  0.8686E+01  0.2211E+02
      3.148  0.7105E+01  0.2226E+02
      3.168  0.7271E+01  0.2240E+02
      3.188  0.7495E+01  0.2255E+02
      3.208  0.7683E+01  0.2270E+02
      3.229  0.5952E+01  0.2284E+02
      3.249  0.5044E+01  0.2295E+02
      3.269  0.4823E+01  0.2305E+02
      3.289  0.4611E+01  0.2315E+02
      3.309  0.4407E+01  0.2324E+02
      3.329  0.4211E+01  0.2333E+02
      3.349  0.4395E+01  0.2341E+02
      3.370  0.4300E+01  0.2350E+02
      3.390  0.4423E+01  0.2359E+02
      3.410  0.4843E+01  0.2368E+02
      3.430  0.5331E+01  0.2378E+02
      3.450  0.5598E+01  0.2389E+02
      3.470  0.6057E+01  0.2401E+02
      3.491  0.6491E+01  0.2414E+02
      3.511  0.6835E+01  0.2427E+02
      3.531  0.6694E+01  0.2441E+02
      3.551  0.6698E+01  0.2454E+02
      3.571  0.6670E+01  0.2468E+02
      3.591  0.6689E+01  0.2481E+02
      3.611  0.6354E+01  0.2494E+02
      3.632  0.5988E+01  0.2507E+02
      3.652  0.5616E+01  0.2518E+02
      3.672  0.5282E+01  0.2529E+02
      3.692  0.5027E+01  0.2540E+02
      3.712  0.4795E+01  0.2550E+02
      3.732  0.4734E+01  0.2560E+02
      3.752  0.4681E+01  0.2569E+02
      3.773  0.4634E+01  0.2579E+02
      3.793  0.5059E+01  0.2589E+02
      3.813  0.5205E+01  0.2599E+02
      3.833  0.5605E+01  0.2610E+02
      3.853  0.4927E+01  0.2620E+02
      3.873  0.4935E+01  0.2630E+02
      3.894  0.4550E+01  0.2640E+02
      3.914  0.4784E+01  0.2649E+02
      3.934  0.4766E+01  0.2659E+02
      3.954  0.4738E+01  0.2668E+02
      3.974  0.4781E+01  0.2678E+02
      3.994  0.4846E+01  0.2688E+02
      4.014  0.4910E+01  0.2698E+02
      4.035  0.4982E+01  0.2708E+02
      4.055  0.5053E+01  0.2718E+02
      4.075  0.5102E+01  0.2729E+02
      4.095  0.5842E+01  0.2740E+02
      4.115  0.5466E+01  0.2751E+02
      4.135  0.5057E+01  0.2762E+02
      4.155  0.4810E+01  0.2773E+02
      4.176  0.4767E+01  0.2782E+02
      4.196  0.4731E+01  0.2792E+02
      4.216  0.4700E+01  0.2801E+02
      4.236  0.4675E+01  0.2811E+02
      4.256  0.4660E+01  0.2820E+02
      4.276  0.4909E+01  0.2830E+02
      4.297  0.5449E+01  0.2841E+02
      4.317  0.6294E+01  0.2853E+02
      4.337  0.5724E+01  0.2865E+02
      4.357  0.5349E+01  0.2876E+02
      4.377  0.5207E+01  0.2887E+02
      4.397  0.5286E+01  0.2899E+02
      4.417  0.4394E+01  0.2909E+02
      4.438  0.4186E+01  0.2918E+02
      4.458  0.3939E+01  0.2926E+02
      4.478  0.3886E+01  0.2934E+02
      4.498  0.3761E+01  0.2942E+02
      4.518  0.3786E+01  0.2949E+02
      4.538  0.3599E+01  0.2957E+02
      4.558  0.3362E+01  0.2964E+02
      4.579  0.2760E+01  0.2971E+02
      4.599  0.2735E+01  0.2976E+02
      4.619  0.2925E+01  0.2982E+02
      4.639  0.3128E+01  0.2988E+02
      4.659  0.3467E+01  0.2995E+02
      4.679  0.3659E+01  0.3002E+02
      4.700  0.3875E+01  0.3010E+02
      4.720  0.4037E+01  0.3017E+02
      4.740  0.4555E+01  0.3026E+02
      4.760  0.4848E+01  0.3038E+02
      4.780  0.4558E+01  0.3048E+02
      4.800  0.4252E+01  0.3056E+02
      4.820  0.3831E+01  0.3065E+02
      4.841  0.3265E+01  0.3072E+02
      4.861  0.2473E+01  0.3077E+02
      4.881  0.2413E+01  0.3082E+02
      4.901  0.2356E+01  0.3087E+02
      4.921  0.2397E+01  0.3092E+02
      4.941  0.2407E+01  0.3097E+02
      4.961  0.2348E+01  0.3101E+02
      4.982  0.2225E+01  0.3106E+02
      5.002  0.2110E+01  0.3110E+02
      5.022  0.2045E+01  0.3115E+02
      5.042  0.1978E+01  0.3119E+02
      5.062  0.1905E+01  0.3123E+02
      5.082  0.1836E+01  0.3126E+02
      5.103  0.1778E+01  0.3130E+02
      5.123  0.1735E+01  0.3134E+02
      5.143  0.1699E+01  0.3137E+02
      5.163  0.1658E+01  0.3140E+02
      5.183  0.1606E+01  0.3144E+02
      5.203  0.1629E+01  0.3147E+02
      5.223  0.1422E+01  0.3150E+02
      5.244  0.1383E+01  0.3153E+02
      5.264  0.1345E+01  0.3156E+02
      5.284  0.1308E+01  0.3159E+02
      5.304  0.1333E+01  0.3161E+02
      5.324  0.1440E+01  0.3164E+02
      5.344  0.1387E+01  0.3167E+02
      5.364  0.1240E+01  0.3170E+02
      5.385  0.1193E+01  0.3172E+02
      5.405  0.1144E+01  0.3174E+02
      5.425  0.1093E+01  0.3177E+02
      5.445  0.1039E+01  0.3179E+02
      5.465  0.1125E+01  0.3181E+02
      5.485  0.9470E+00  0.3183E+02
      5.506  0.8099E+00  0.3185E+02
      5.526  0.7024E+00  0.3187E+02
      5.546  0.6579E+00  0.3188E+02
      5.566  0.6160E+00  0.3189E+02
      5.586  0.5768E+00  0.3190E+02
      5.606  0.5403E+00  0.3192E+02
      5.626  0.7587E+00  0.3193E+02
      5.647  0.7132E+00  0.3195E+02
      5.667  0.6308E+00  0.3196E+02
      5.687  0.5116E+00  0.3197E+02
      5.707  0.3556E+00  0.3198E+02
      5.727  0.2756E+00  0.3199E+02
      5.747  0.2090E+00  0.3199E+02
      5.767  0.1494E+00  0.3199E+02
      5.788  0.0000E+00  0.3200E+02
      5.808  0.0000E+00  0.3200E+02
      5.828  0.0000E+00  0.3200E+02
      5.848  0.0000E+00  0.3200E+02
      5.868  0.0000E+00  0.3200E+02
      5.888  0.0000E+00  0.3200E+02
      5.909  0.0000E+00  0.3200E+02
      5.929  0.0000E+00  0.3200E+02
      5.949  0.0000E+00  0.3200E+02
      5.969  0.0000E+00  0.3200E+02
      5.989  0.0000E+00  0.3200E+02
      6.009  0.0000E+00  0.3200E+02
      6.029  0.0000E+00  0.3200E+02
      6.050  0.0000E+00  0.3200E+02
      6.070  0.0000E+00  0.3200E+02
      6.090  0.0000E+00  0.3200E+02
      6.110  0.0000E+00  0.3200E+02
      6.130  0.0000E+00  0.3200E+02
      6.150  0.0000E+00  0.3200E+02
      6.170  0.0000E+00  0.3200E+02
      6.191  0.0000E+00  0.3200E+02
      6.211  0.0000E+00  0.3200E+02
      6.231  0.0000E+00  0.3200E+02
      6.251  0.0000E+00  0.3200E+02
      6.271  0.0000E+00  0.3200E+02
      6.291  0.0000E+00  0.3200E+02
      6.312  0.0000E+00  0.3200E+02
      6.332  0.0000E+00  0.3200E+02
      6.352  0.0000E+00  0.3200E+02
      6.372  0.0000E+00  0.3200E+02
      6.392  0.0000E+00  0.3200E+02
      6.412  0.0000E+00  0.3200E+02
      6.432  0.0000E+00  0.3200E+02
      6.453  0.0000E+00  0.3200E+02
      6.473  0.0000E+00  0.3200E+02
      6.493  0.0000E+00  0.3200E+02
      6.513  0.0000E+00  0.3200E+02
      6.533  0.1012E+01  0.3201E+02
      6.553  0.6296E+00  0.3204E+02
      6.573  0.7102E+00  0.3205E+02
      6.594  0.6128E+00  0.3206E+02
      6.614  0.6463E+00  0.3208E+02
      6.634  0.6801E+00  0.3209E+02
      6.654  0.7143E+00  0.3210E+02
      6.674  0.7490E+00  0.3212E+02
      6.694  0.7840E+00  0.3213E+02
      6.715  0.8195E+00  0.3215E+02
      6.735  0.8223E+00  0.3217E+02
      6.755  0.8632E+00  0.3218E+02
      6.775  0.9158E+00  0.3220E+02
      6.795  0.9735E+00  0.3222E+02
      6.815  0.1104E+01  0.3224E+02
      6.835  0.1190E+01  0.3227E+02
      6.856  0.2181E+01  0.3230E+02
      6.876  0.1813E+01  0.3234E+02
      6.896  0.1409E+01  0.3237E+02
      6.916  0.1475E+01  0.3240E+02
      6.936  0.1543E+01  0.3243E+02
      6.956  0.1614E+01  0.3246E+02
      6.976  0.1684E+01  0.3250E+02
      6.997  0.1936E+01  0.3254E+02
      7.017  0.1956E+01  0.3258E+02
      7.037  0.1975E+01  0.3262E+02
      7.057  0.2007E+01  0.3266E+02
      7.077  0.2037E+01  0.3270E+02
      7.097  0.1975E+01  0.3274E+02
      7.117  0.1952E+01  0.3278E+02
      7.138  0.1929E+01  0.3282E+02
      7.158  0.1913E+01  0.3286E+02
      7.178  0.1926E+01  0.3290E+02
      7.198  0.1951E+01  0.3293E+02
      7.218  0.1985E+01  0.3297E+02
      7.238  0.2022E+01  0.3301E+02
      7.259  0.2063E+01  0.3306E+02
      7.279  0.2206E+01  0.3311E+02
      7.299  0.2263E+01  0.3315E+02
      7.319  0.2322E+01  0.3320E+02
      7.339  0.2383E+01  0.3324E+02
      7.359  0.2446E+01  0.3329E+02
      7.379  0.2475E+01  0.3334E+02
      7.400  0.2552E+01  0.3339E+02
      7.420  0.2636E+01  0.3345E+02
      7.440  0.2676E+01  0.3350E+02
      7.460  0.2716E+01  0.3356E+02
      7.480  0.3114E+01  0.3361E+02
      7.500  0.3054E+01  0.3368E+02
      7.520  0.3090E+01  0.3374E+02
      7.541  0.3181E+01  0.3380E+02
      7.561  0.3283E+01  0.3386E+02
      7.581  0.3484E+01  0.3393E+02
      7.601  0.3566E+01  0.3400E+02
      7.621  0.3625E+01  0.3408E+02
      7.641  0.3763E+01  0.3416E+02
      7.662  0.3899E+01  0.3423E+02
      7.682  0.4201E+01  0.3432E+02
      7.702  0.4321E+01  0.3440E+02
      7.722  0.4290E+01  0.3449E+02
      7.742  0.4340E+01  0.3458E+02
      7.762  0.4430E+01  0.3466E+02
      7.782  0.4532E+01  0.3475E+02
      7.803  0.4622E+01  0.3485E+02
      7.823  0.4655E+01  0.3494E+02
      7.843  0.4604E+01  0.3503E+02
      7.863  0.4554E+01  0.3513E+02
      7.883  0.4453E+01  0.3522E+02
      7.903  0.4360E+01  0.3530E+02
      7.923  0.4472E+01  0.3539E+02
      7.944  0.4647E+01  0.3549E+02
      7.964  0.5517E+01  0.3559E+02
      7.984  0.7202E+01  0.3573E+02
      8.004  0.7236E+01  0.3587E+02
      8.024  0.7202E+01  0.3602E+02
      8.044  0.7127E+01  0.3617E+02
      8.065  0.6846E+01  0.3631E+02
      8.085  0.6597E+01  0.3645E+02
      8.105  0.6429E+01  0.3658E+02
      8.125  0.5404E+01  0.3670E+02
      8.145  0.4704E+01  0.3680E+02
      8.165  0.5883E+01  0.3690E+02
      8.185  0.4579E+01  0.3699E+02
      8.206  0.4634E+01  0.3708E+02
      8.226  0.4891E+01  0.3718E+02
      8.246  0.4992E+01  0.3728E+02
      8.266  0.4899E+01  0.3738E+02
      8.286  0.4839E+01  0.3748E+02
      8.306  0.4667E+01  0.3758E+02
      8.326  0.4604E+01  0.3767E+02
      8.347  0.4658E+01  0.3777E+02
      8.367  0.4831E+01  0.3786E+02
      8.387  0.4967E+01  0.3796E+02
      8.407  0.5072E+01  0.3806E+02
      8.427  0.5162E+01  0.3817E+02
      8.447  0.5089E+01  0.3827E+02
      8.468  0.5263E+01  0.3837E+02
      8.488  0.5318E+01  0.3848E+02
      8.508  0.5690E+01  0.3862E+02
      8.528  0.5599E+01  0.3873E+02