unknown system                          
   5.43000000000000     
     0.500000    0.500000    0.000000
     0.000000    0.500000    0.500000
     0.500000    0.000000    0.500000
   Si
     2
Direct
  0.000000  0.000000  0.000000
  0.250000  0.250000  0.250000
 
   32   32   32
 -1.0121     0.14029      3.2417      7.3757      11.433      14.500      16.098      16.219      15.212      13.596    
  11.880      10.330      9.0337      8.0256      7.3124      6.8889      6.7486      6.8889      7.3124      8.0256    
  9.0337      10.330      11.880      13.596      15.212      16.220      16.098      14.500      11.433      7.3756    
  3.2417     0.14034     0.14029      2.4342      6.3195      10.689      14.454      16.887      17.753      17.252    
  15.860      14.128      12.462      11.003      9.8083      8.9022      8.2945      7.9897      7.9897      8.2945    
  8.9022      9.8083      11.003      12.462      14.128      15.860      17.253      17.753      16.887      14.454    
  10.689      6.3195      2.4342     0.14029      3.2417      6.3195      10.402      14.378      17.348      18.852    
  18.902      17.862      16.256      14.573      13.029      11.701      10.629      9.8381      9.3527      9.1888    
  9.3527      9.8381      10.629      11.701      13.029      14.573      16.256      17.862      18.902      18.852    
  17.348      14.378      10.402      6.3195      3.2417      2.0952      7.3757      10.689      14.378      17.499    
  19.427      19.980      19.365      18.027      16.454      14.936      13.563      12.384      11.439      10.774    
  10.429      10.429      10.774      11.439      12.383      13.563      14.936      16.454      18.027      19.365    
  19.980      19.427      17.499      14.378      10.689      7.3758      5.4101      5.4100      11.433      14.454    
  17.348      19.427      20.355      20.174      19.205      17.880      16.515      15.211      14.020      12.985    
  12.164      11.628      11.441      11.628      12.164      12.985      14.020      15.211      16.514      17.880    
  19.205      20.174      20.355      19.427      17.348      14.454      11.433      9.1369      8.2788      9.1369    
  14.500      16.887      18.852      19.980      20.174      19.618      18.651      17.563      16.454      15.366    
  14.331      13.403      12.684      12.287      12.287      12.684      13.403      14.331      15.366      16.454    
  17.563      18.651      19.618      20.174      19.980      18.852      16.887      14.500      12.330      11.036    
  11.036      12.330      16.098      17.753      18.902      19.365      19.205      18.651      17.931      17.125    
  16.256      15.329      14.377      13.516      12.907      12.686      12.907      13.516      14.377      15.329    
  16.256      17.124      17.931      18.651      19.205      19.365      18.902      17.753      16.098      14.345    
  13.004      12.502      13.004      14.345      16.219      17.252      17.862      18.027      17.880      17.563    
  17.125      16.568      15.860      14.998      14.084      13.301      12.846      12.846      13.301      14.084    
  14.998      15.860      16.568      17.124      17.563      17.880      18.027      17.862      17.253      16.220    
  14.966      13.826      13.146      13.146      13.826      14.966      15.212      15.860      16.256      16.454    
  16.515      16.454      16.256      15.860      15.212      14.370      13.508      12.858      12.616      12.858    
  13.508      14.370      15.212      15.860      16.256      16.454      16.514      16.454      16.256      15.860    
  15.212      14.370      13.508      12.858      12.617      12.859      13.508      14.370      13.596      14.128    
  14.573      14.936      15.211      15.366      15.329      14.998      14.370      13.571      12.829      12.382    
  12.382      12.829      13.571      14.370      14.998      15.329      15.366      15.211      14.936      14.573    
  14.128      13.596      12.981      12.340      11.796      11.481      11.481      11.796      12.340      12.981    
  11.880      12.462      13.029      13.563      14.020      14.331      14.377      14.084      13.508      12.829    
  12.284      12.077      12.285      12.829      13.508      14.084      14.377      14.331      14.020      13.563    
  13.029      12.462      11.880      11.300      10.751      10.282      9.9604      9.8450      9.9604      10.282    
  10.751      11.300      10.330      11.003      11.701      12.384      12.985      13.403      13.516      13.301    
  12.858      12.382      12.077      12.077      12.382      12.859      13.301      13.516      13.403      12.985    
  12.383      11.701      11.003      10.330      9.7068      9.1516      8.6895      8.3531      8.1748      8.1748    
  8.3532      8.6895      9.1515      9.7068      9.0337      9.8083      10.629      11.439      12.164      12.684    
  12.907      12.846      12.616      12.382      12.285      12.382      12.617      12.847      12.907      12.684    
  12.164      11.439      10.629      9.8083      9.0337      8.3381      7.7401      7.2526      6.8887      6.6626    
  6.5857      6.6626      6.8887      7.2526      7.7401      8.3381      8.0256      8.9022      9.8381      10.774    
  11.628      12.287      12.686      12.846      12.858      12.829      12.829      12.859      12.847      12.686    
  12.287      11.628      10.774      9.8382      8.9022      8.0256      7.2474      6.5880      6.0556      5.6533    
  5.3831      5.2472      5.2472      5.3831      5.6533      6.0556      6.5880      7.2474      7.3124      8.2945    
  9.3527      10.429      11.441      12.287      12.907      13.301      13.508      13.571      13.508      13.301    
  12.907      12.287      11.441      10.429      9.3527      8.2945      7.3124      6.4462      5.7165      5.1288    
  4.6802      4.3649      4.1778      4.1158      4.1778      4.3649      4.6802      5.1288      5.7165      6.4462    
  6.8889      7.9897      9.1888      10.429      11.628      12.684      13.516      14.084      14.370      14.370    
  14.084      13.516      12.684      11.628      10.429      9.1888      7.9897      6.8889      5.9249      5.1165    
  4.4660      3.9657      3.6038      3.3692      3.2539      3.2539      3.3692      3.6038      3.9657      4.4660    
  5.1164      5.9249      6.7486      7.9897      9.3527      10.774      12.164      13.403      14.377      14.998    
  15.212      14.998      14.377      13.403      12.164      10.774      9.3527      7.9897      6.7486      5.6689    
  4.7679      4.0443      3.4856      3.0740      2.7927      2.6290      2.5753      2.6290      2.7927      3.0740    
  3.4856      4.0443      4.7679      5.6689      6.8889      8.2945      9.8381      11.439      12.985      14.331    
  15.329      15.860      15.860      15.329      14.331      12.985      11.439      9.8382      8.2945      6.8889    
  5.6689      4.6538      3.8404      3.2113      2.7431      2.4128      2.2023      2.0998      2.0998      2.2023    
  2.4128      2.7431      3.2113      3.8404      4.6538      5.6690      7.3124      8.9022      10.629      12.383    
  14.020      15.366      16.256      16.568      16.256      15.366      14.020      12.383      10.629      8.9022    
  7.3124      5.9249      4.7679      3.8404      3.1224      2.5849      2.1983      1.9385      1.7888      1.7398    
  1.7888      1.9386      2.1983      2.5849      3.1224      3.8404      4.7679      5.9249      8.0256      9.8083    
  11.701      13.563      15.211      16.454      17.124      17.124      16.454      15.211      13.563      11.701    
  9.8083      8.0256      6.4462      5.1165      4.0443      3.2113      2.5849      2.1291      1.8129      1.6134    
  1.5168      1.5168      1.6134      1.8129      2.1291      2.5849      3.2113      4.0443      5.1164      6.4462    
  9.0337      11.003      13.029      14.936      16.514      17.563      17.931      17.563      16.514      14.936    
  13.029      11.003      9.0337      7.2474      5.7165      4.4660      3.4856      2.7431      2.1983      1.8129    
  1.5567      1.4101      1.3623      1.4101      1.5567      1.8129      2.1983      2.7431      3.4856      4.4660    
  5.7165      7.2474      10.330      12.462      14.573      16.454      17.880      18.651      18.651      17.880    
  16.454      14.573      12.462      10.330      8.3381      6.5880      5.1288      3.9657      3.0740      2.4128    
  1.9385      1.6134      1.4101      1.3121      1.3121      1.4101      1.6134      1.9385      2.4128      3.0740    
  3.9657      5.1288      6.5880      8.3381      11.880      14.128      16.256      18.027      19.205      19.618    
  19.205      18.027      16.256      14.128      11.880      9.7068      7.7401      6.0556      4.6802      3.6038    
  2.7927      2.2023      1.7888      1.5168      1.3623      1.3121      1.3623      1.5168      1.7888      2.2023    
  2.7927      3.6038      4.6802      6.0556      7.7401      9.7068      13.596      15.860      17.862      19.365    
  20.174      20.174      19.365      17.862      15.860      13.596      11.300      9.1516      7.2526      5.6533    
  4.3649      3.3692      2.6290      2.0998      1.7398      1.5168      1.4101      1.4101      1.5168      1.7398    
  2.0998      2.6290      3.3692      4.3649      5.6533      7.2526      9.1516      11.300      15.212      17.253    
  18.902      19.980      20.355      19.980      18.902      17.253      15.212      12.981      10.751      8.6895    
  6.8887      5.3831      4.1778      3.2539      2.5753      2.0998      1.7888      1.6134      1.5567      1.6134    
  1.7888      2.0998      2.5753      3.2539      4.1778      5.3831      6.8887      8.6895      10.751      12.981    
  16.220      17.753      18.852      19.427      19.427      18.852      17.753      16.220      14.370      12.340    
  10.282      8.3531      6.6626      5.2472      4.1158      3.2539      2.6290      2.2023      1.9386      1.8129    
  1.8129      1.9385      2.2023      2.6290      3.2539      4.1158      5.2472      6.6626      8.3532      10.282    
  12.340      14.370      16.098      16.887      17.348      17.499      17.348      16.887      16.098      14.966    
  13.508      11.796      9.9604      8.1748      6.5857      5.2472      4.1778      3.3692      2.7927      2.4128    
  2.1983      2.1291      2.1983      2.4128      2.7927      3.3692      4.1778      5.2472      6.5857      8.1748    
  9.9604      11.796      13.508      14.966      14.500      14.454      14.378      14.378      14.454      14.500    
  14.345      13.826      12.858      11.481      9.8450      8.1748      6.6626      5.3831      4.3649      3.6038    
  3.0740      2.7431      2.5849      2.5849      2.7431      3.0740      3.6038      4.3649      5.3831      6.6626    
  8.1748      9.8450      11.481      12.859      13.826      14.345      11.433      10.689      10.402      10.689    
  11.433      12.330      13.004      13.146      12.617      11.481      9.9604      8.3532      6.8887      5.6533    
  4.6802      3.9657      3.4856      3.2113      3.1224      3.2113      3.4856      3.9657      4.6802      5.6533    
  6.8887      8.3532      9.9604      11.481      12.617      13.146      13.004      12.330      7.3756      6.3195    
  6.3195      7.3758      9.1369      11.036      12.502      13.146      12.859      11.796      10.282      8.6895    
  7.2526      6.0556      5.1288      4.4660      4.0443      3.8404      3.8404      4.0443      4.4660      5.1288    
  6.0556      7.2526      8.6895      10.282      11.796      12.859      13.146      12.502      11.036      9.1367    
  3.2417      2.4342      3.2417      5.4101      8.2788      11.036      13.004      13.826      13.508      12.340    
  10.751      9.1515      7.7401      6.5880      5.7165      5.1164      4.7679      4.6538      4.7679      5.1164    
  5.7165      6.5880      7.7401      9.1516      10.751      12.340      13.508      13.826      13.004      11.036    
  8.2786      5.4100     0.14034     0.14029      2.0952      5.4100      9.1369      12.330      14.345      14.966    
  14.370      12.981      11.300      9.7068      8.3381      7.2474      6.4462      5.9249      5.6689      5.6690    
  5.9249      6.4462      7.2474      8.3381      9.7068      11.300      12.981      14.370      14.966      14.345    
  12.330      9.1367      5.4100      2.0952     0.14027      2.4342      6.3195      10.689      14.454      16.887    
  17.753      17.253      15.860      14.128      12.462      11.003      9.8083      8.9022      8.2945      7.9897    
  7.9897      8.2945      8.9022      9.8083      11.003      12.462      14.128      15.860      17.253      17.753    
  16.887      14.454      10.689      6.3194      2.4340     0.14017      2.4342      5.6892      10.012      14.236    
  17.414      19.065      19.198      18.184      16.568      14.855      13.283      11.928      10.832      10.024    
  9.5273      9.3594      9.5273      10.024      10.832      11.928      13.283      14.855      16.568      18.184    
  19.198      19.065      17.414      14.236      10.012      5.6890      2.4341      1.2222      6.3195      10.012    
  14.140      17.662      19.896      20.636      20.098      18.752      17.124      15.544      14.112      12.879    
  11.889      11.189      10.825      10.825      11.189      11.889      12.879      14.112      15.544      17.124    
  18.752      20.098      20.636      19.896      17.662      14.140      10.012      6.3194      4.1319      4.1319    
  10.689      14.236      17.662      20.181      21.402      21.363      20.409      19.017      17.563      16.171    
  14.893      13.775      12.881      12.293      12.087      12.293      12.881      13.775      14.893      16.171    
  17.563      19.017      20.409      21.363      21.402      20.181      17.662      14.235      10.689      8.0031    
  7.0007      8.0030      14.454      17.414      19.896      21.402      21.805      21.304      20.280      19.093    
  17.880      16.680      15.519      14.460      13.632      13.173      13.173      13.632      14.461      15.519    
  16.680      17.880      19.093      20.280      21.304      21.805      21.402      19.896      17.414      14.454    
  11.786      10.200      10.200      11.786      16.887      19.065      20.636      21.363      21.304      20.724    
  19.921      19.017      18.027      16.935      15.789      14.741      13.994      13.722      13.994      14.741    
  15.789      16.935      18.027      19.017      19.921      20.724      21.304      21.363      20.636      19.065    
  16.887      14.615      12.889      12.244      12.889      14.615      17.753      19.198      20.098      20.409    
  20.280      19.921      19.416      18.752      17.862      16.749      15.557      14.534      13.939      13.939    
  14.534      15.557      16.749      17.862      18.752      19.416      19.921      20.280      20.409      20.098    
  19.198      17.753      16.038      14.496      13.580      13.580      14.496      16.038      17.253      18.184    
  18.752      19.017      19.093      19.017      18.752      18.184      17.253      16.053      14.837      13.924    
  13.585      13.924      14.837      16.053      17.253      18.184      18.752      19.017      19.093      19.017    
  18.752      18.184      17.253      16.054      14.837      13.924      13.585      13.924      14.837      16.054    
  15.860      16.568      17.124      17.563      17.880      18.027      17.862      17.253      16.220      14.966    
  13.826      13.146      13.146      13.826      14.966      16.220      17.253      17.862      18.027      17.880    
  17.563      17.124      16.568      15.860      14.998      14.084      13.301      12.847      12.847      13.301    
  14.084      14.998      14.128      14.855      15.544      16.171      16.680      16.935      16.749      16.053    
  14.966      13.776      12.853      12.505      12.852      13.776      14.966      16.054      16.749      16.935    
  16.680      16.171      15.544      14.855      14.128      13.378      12.637      11.982      11.522      11.357    
  11.522      11.982      12.637      13.378      12.462      13.283      14.112      14.893      15.519      15.789    
  15.557      14.837      13.826      12.853      12.258      12.258      12.852      13.826      14.837      15.557    
  15.789      15.519      14.893      14.112      13.283      12.462      11.681      10.966      10.357      9.9042    
  9.6606      9.6606      9.9043      10.357      10.966      11.681      11.003      11.928      12.879      13.775    
  14.460      14.741      14.534      13.924      13.146      12.505      12.258      12.505      13.146      13.924    
  14.534      14.741      14.460      13.775      12.879      11.928      11.003      10.152      9.4047      8.7817    
  8.3079      8.0094      7.9072      8.0094      8.3079      8.7817      9.4047      10.152      9.8083      10.832    
  11.889      12.881      13.632      13.994      13.939      13.585      13.146      12.852      12.852      13.146    
  13.585      13.939      13.994      13.632      12.881      11.889      10.832      9.8083      8.8765      8.0710    
  7.4093      6.9014      6.5560      6.3809      6.3809      6.5560      6.9014      7.4093      8.0710      8.8765    
  8.9022      10.024      11.189      12.293      13.173      13.722      13.939      13.924      13.826      13.776    
  13.826      13.924      13.939      13.722      13.173      12.293      11.189      10.024      8.9022      7.8857    
  7.0121      6.2975      5.7453      5.3536      5.1197      5.0419      5.1197      5.3536      5.7453      6.2975    
  7.0121      7.8857      8.2945      9.5273      10.825      12.087      13.173      13.994      14.534      14.837    
  14.966      14.966      14.837      14.534      13.994      13.173      12.087      10.825      9.5273      8.2945    
  7.1855      6.2361      5.4604      4.8574      4.4181      4.1321      3.9913      3.9913      4.1321      4.4181    
  4.8574      5.4604      6.2361      7.1855      7.9897      9.3594      10.825      12.293      13.632      14.741    
  15.557      16.053      16.220      16.054      15.557      14.741      13.632      12.293      10.825      9.3594    
  7.9897      6.7699      5.7319      4.8857      4.2255      3.7362      3.4010      3.2058      3.1418      3.2058    
  3.4010      3.7362      4.2255      4.8857      5.7318      6.7699      7.9897      9.5273      11.189      12.881    
  14.461      15.789      16.749      17.253      17.253      16.749      15.789      14.460      12.881      11.189    
  9.5273      7.9897      6.6323      5.4845      4.5524      3.8245      3.2797      2.8946      2.6493      2.5300    
  2.5300      2.6493      2.8946      3.2797      3.8245      4.5524      5.4845      6.6323      8.2945      10.024    
  11.889      13.775      15.519      16.935      17.862      18.184      17.862      16.935      15.519      13.775    
  11.889      10.024      8.2945      6.7699      5.4845      4.4433      3.6307      3.0193      2.5790      2.2832    
  2.1131      2.0576      2.1131      2.2832      2.5789      3.0193      3.6307      4.4434      5.4845      6.7699    
  8.9022      10.832      12.879      14.893      16.680      18.027      18.752      18.752      18.027      16.680    
  14.893      12.879      10.832      8.9022      7.1855      5.7319      4.5524      3.6307      2.9349      2.4280    
  2.0766      1.8553      1.7483      1.7483      1.8553      2.0766      2.4280      2.9349      3.6307      4.5524    
  5.7319      7.1855      9.8083      11.928      14.112      16.171      17.880      19.017      19.416      19.017    
  17.880      16.171      14.112      11.928      9.8083      7.8857      6.2361      4.8857      3.8245      3.0193    
  2.4280      2.0098      1.7322      1.5735      1.5218      1.5735      1.7323      2.0098      2.4280      3.0193    
  3.8245      4.8857      6.2361      7.8857      11.003      13.283      15.544      17.563      19.093      19.921    
  19.921      19.093      17.563      15.544      13.283      11.003      8.8765      7.0121      5.4604      4.2255    
  3.2797      2.5790      2.0766      1.7322      1.5170      1.4133      1.4133      1.5170      1.7322      2.0766    
  2.5790      3.2797      4.2255      5.4604      7.0121      8.8765      12.462      14.855      17.124      19.017    
  20.280      20.724      20.280      19.017      17.124      14.855      12.462      10.152      8.0710      6.2975    
  4.8574      3.7362      2.8946      2.2832      1.8553      1.5735      1.4133      1.3613      1.4133      1.5735    
  1.8553      2.2832      2.8946      3.7362      4.8574      6.2975      8.0710      10.152      14.128      16.568    
  18.752      20.409      21.304      21.304      20.409      18.752      16.568      14.128      11.681      9.4047    
  7.4093      5.7453      4.4181      3.4010      2.6493      2.1131      1.7483      1.5218      1.4133      1.4133    
  1.5219      1.7483      2.1131      2.6493      3.4010      4.4181      5.7453      7.4093      9.4047      11.681    
  15.860      18.184      20.098      21.363      21.805      21.363      20.098      18.184      15.860      13.378    
  10.966      8.7817      6.9014      5.3536      4.1321      3.2058      2.5300      2.0576      1.7483      1.5735    
  1.5170      1.5735      1.7483      2.0576      2.5300      3.2058      4.1321      5.3536      6.9013      8.7817    
  10.966      13.378      17.253      19.198      20.636      21.402      21.402      20.636      19.198      17.253    
  14.998      12.637      10.357      8.3079      6.5560      5.1197      3.9913      3.1418      2.5300      2.1131    
  1.8553      1.7323      1.7322      1.8553      2.1131      2.5300      3.1418      3.9912      5.1197      6.5560    
  8.3079      10.357      12.637      14.998      17.753      19.065      19.896      20.181      19.896      19.065    
  17.753      16.054      14.084      11.982      9.9042      8.0094      6.3809      5.0419      3.9913      3.2058    
  2.6493      2.2832      2.0766      2.0098      2.0766      2.2832      2.6493      3.2058      3.9912      5.0419    
  6.3809      8.0094      9.9043      11.982      14.084      16.053      16.887      17.414      17.662      17.662    
  17.414      16.887      16.038      14.837      13.301      11.522      9.6606      7.9072      6.3809      5.1197    
  4.1321      3.4010      2.8946      2.5789      2.4280      2.4280      2.5790      2.8946      3.4010      4.1321    
  5.1197      6.3809      7.9072      9.6606      11.522      13.301      14.837      16.038      14.454      14.236    
  14.140      14.235      14.454      14.615      14.496      13.924      12.847      11.357      9.6606      8.0094    
  6.5560      5.3536      4.4181      3.7362      3.2797      3.0193      2.9349      3.0193      3.2797      3.7362    
  4.4181      5.3536      6.5560      8.0094      9.6606      11.356      12.846      13.924      14.496      14.615    
  10.689      10.012      10.012      10.689      11.786      12.889      13.580      13.585      12.847      11.522    
  9.9043      8.3079      6.9014      5.7453      4.8574      4.2255      3.8245      3.6307      3.6307      3.8245    
  4.2255      4.8574      5.7453      6.9013      8.3079      9.9043      11.522      12.846      13.585      13.580    
  12.889      11.786      6.3194      5.6890      6.3194      8.0031      10.200      12.244      13.580      13.924    
  13.301      11.982      10.357      8.7817      7.4093      6.2975      5.4604      4.8857      4.5524      4.4434    
  4.5524      4.8857      5.4604      6.2975      7.4093      8.7817      10.357      11.982      13.301      13.924    
  13.580      12.244      10.200      8.0031      2.4340      2.4341      4.1319      7.0007      10.200      12.889    
  14.496      14.837      14.084      12.637      10.966      9.4047      8.0710      7.0121      6.2361      5.7318    
  5.4845      5.4845      5.7319      6.2361      7.0121      8.0710      9.4047      10.966      12.637      14.084    
  14.837      14.496      12.889      10.200      7.0006      4.1318     0.14017      1.2222      4.1319      8.0030    
  11.786      14.615      16.038      16.054      14.998      13.378      11.681      10.152      8.8765      7.8857    
  7.1855      6.7699      6.6323      6.7699      7.1855      7.8857      8.8765      10.152      11.681      13.378    
  14.998      16.053      16.038      14.615      11.786      8.0031      4.1318      1.2221      3.2416      6.3195    
  10.402      14.378      17.348      18.852      18.902      17.862      16.256      14.573      13.029      11.701    
  10.629      9.8381      9.3527      9.1888      9.3527      9.8381      10.629      11.701      13.029      14.573    
  16.256      17.862      18.902      18.852      17.348      14.378      10.402      6.3196      3.2417      2.0951    
  6.3195      10.012      14.140      17.662      19.896      20.636      20.098      18.753      17.125      15.544    
  14.112      12.879      11.889      11.189      10.825      10.825      11.189      11.889      12.879      14.112    
  15.544      17.124      18.752      20.098      20.636      19.896      17.662      14.140      10.012      6.3195    
  4.1318      4.1318      10.402      14.140      17.760      20.437      21.765      21.778      20.831      19.416    
  17.931      16.507      15.199      14.052      13.131      12.524      12.311      12.524      13.131      14.052    
  15.199      16.507      17.931      19.416      20.831      21.778      21.765      20.437      17.760      14.140    
  10.402      7.5744      6.5194      7.5744      14.378      17.662      20.437      22.158      22.681      22.215    
  21.162      19.921      18.651      17.389      16.157      15.026      14.136      13.641      13.641      14.136    
  15.026      16.157      17.390      18.651      19.921      21.162      22.215      22.681      22.158      20.437    
  17.662      14.378      11.426      9.6738      9.6738      11.426      17.348      19.896      21.765      22.681    
  22.701      22.110      21.251      20.280      19.205      17.996      16.713      15.532      14.687      14.380    
  14.687      15.532      16.713      17.996      19.205      20.280      21.251      22.110      22.701      22.681    
  21.765      19.896      17.348      14.707      12.707      11.960      12.707      14.707      18.852      20.636    
  21.778      22.215      22.110      21.719      21.162      20.409      19.365      18.047      16.627      15.406    
  14.696      14.696      15.406      16.627      18.047      19.365      20.409      21.162      21.719      22.110    
  22.215      21.778      20.636      18.852      16.759      14.886      13.776      13.776      14.886      16.759    
  18.902      20.098      20.831      21.162      21.251      21.162      20.831      20.098      18.902      17.375    
  15.831      14.676      14.248      14.677      15.832      17.375      18.902      20.098      20.831      21.162    
  21.251      21.162      20.831      20.098      18.902      17.375      15.832      14.677      14.248      14.676    
  15.831      17.375      17.862      18.753      19.416      19.921      20.280      20.409      20.098      19.198    
  17.753      16.038      14.496      13.580      13.580      14.496      16.038      17.753      19.198      20.098    
  20.409      20.280      19.921      19.416      18.752      17.862      16.749      15.557      14.534      13.939    
  13.939      14.534      15.557      16.749      16.256      17.125      17.931      18.651      19.205      19.365    
  18.902      17.753      16.098      14.345      13.004      12.502      13.004      14.345      16.098      17.753    
  18.902      19.365      19.205      18.651      17.931      17.124      16.256      15.329      14.377      13.516    
  12.907      12.686      12.907      13.516      14.377      15.329      14.573      15.544      16.507      17.389    
  17.996      18.047      17.375      16.038      14.345      12.779      11.838      11.838      12.779      14.345    
  16.038      17.375      18.047      17.996      17.390      16.507      15.544      14.573      13.630      12.751    
  11.982      11.396      11.076      11.076      11.396      11.982      12.751      13.630      13.029      14.112    
  15.199      16.157      16.713      16.627      15.831      14.496      13.004      11.838      11.397      11.838    
  13.004      14.496      15.831      16.627      16.713      16.157      15.199      14.112      13.029      12.015    
  11.108      10.338      9.7422      9.3626      9.2319      9.3626      9.7422      10.338      11.108      12.015    
  11.701      12.879      14.052      15.026      15.532      15.406      14.676      13.580      12.502      11.838    
  11.838      12.502      13.580      14.676      15.406      15.532      15.026      14.052      12.879      11.701    
  10.606      9.6423      8.8377      8.2111      7.7798      7.5595      7.5595      7.7798      8.2111      8.8377    
  9.6423      10.606      10.629      11.889      13.131      14.136      14.687      14.696      14.248      13.580    
  13.004      12.779      13.004      13.580      14.248      14.696      14.687      14.136      13.131      11.889    