unknown system                          
   5.43000000000000     
     0.500000    0.500000    0.000000
     0.000000    0.500000    0.500000
     0.500000    0.000000    0.500000
   Si
     2
Direct
  0.000000  0.000000  0.000000
  0.250000  0.250000  0.250000
 
   32   32   32
 -.10121055717E+01 0.14029196221E+00 0.32416889555E+01 0.73757071461E+01 0.11432984667E+02
 0.14499860957E+02 0.16097860394E+02 0.16219486255E+02 0.15211966501E+02 0.13596338587E+02
 0.11880401660E+02 0.10330343913E+02 0.90337045524E+01 0.80256070978E+01 0.73124113895E+01
 0.68888884145E+01 0.67485973599E+01 0.68888945645E+01 0.73124114482E+01 0.80255927243E+01
 0.90336805619E+01 0.10330323338E+02 0.11880401595E+02 0.13596377772E+02 0.15212046154E+02
 0.16219563205E+02 0.16097860919E+02 0.14499750675E+02 0.11432822829E+02 0.73756025395E+01
 0.32416888592E+01 0.14033535087E+00 0.14029196221E+00 0.24342158159E+01 0.63195223895E+01
 0.10688762429E+02 0.14454313375E+02 0.16887341568E+02 0.17752731047E+02 0.17252460069E+02
 0.15860155504E+02 0.14127765366E+02 0.12462001924E+02 0.11003095999E+02 0.98083332768E+01
 0.89022004495E+01 0.82945290169E+01 0.79897172548E+01 0.79897017751E+01 0.82945068044E+01
 0.89022015903E+01 0.98083378803E+01 0.11003062942E+02 0.12461943932E+02 0.14127751917E+02
 0.15860228097E+02 0.17252572300E+02 0.17752791825E+02 0.16887304587E+02 0.14454210010E+02
 0.10688657895E+02 0.63194577988E+01 0.24341909889E+01 0.14028719227E+00 0.32416889555E+01
 0.63195223895E+01 0.10401966314E+02 0.14378466559E+02 0.17347930099E+02 0.18851855274E+02
 0.18902327904E+02 0.17861632041E+02 0.16256335691E+02 0.14572740216E+02 0.13029367805E+02
 0.11701291437E+02 0.10628538615E+02 0.98381306424E+01 0.93526765650E+01 0.91887882747E+01
 0.93526686602E+01 0.98381228962E+01 0.10628530379E+02 0.11701268332E+02 0.13029322906E+02
 0.14572697642E+02 0.16256341187E+02 0.17861707334E+02 0.18902431595E+02 0.18851903054E+02
 0.17347873332E+02 0.14378351313E+02 0.10401893559E+02 0.63195392759E+01 0.32417389546E+01
 0.20951665210E+01 0.73757071461E+01 0.10688762429E+02 0.14378466559E+02 0.17498791865E+02
 0.19426637374E+02 0.19979756718E+02 0.19365402962E+02 0.18027078384E+02 0.16454389531E+02
 0.14935860774E+02 0.13562531779E+02 0.12383510917E+02 0.11439423995E+02 0.10774031362E+02
 0.10428588038E+02 0.10428586308E+02 0.10774021247E+02 0.11439403464E+02 0.12383489333E+02
 0.13562509596E+02 0.14935823010E+02 0.16454343588E+02 0.18027074906E+02 0.19365478228E+02
 0.19979861895E+02 0.19426672207E+02 0.17498723850E+02 0.14378379532E+02 0.10688757278E+02
 0.73757769693E+01 0.54100575289E+01 0.54100140893E+01 0.11432984667E+02 0.14454313375E+02
 0.17347930099E+02 0.19426637374E+02 0.20354759479E+02 0.20174120135E+02 0.19204707943E+02
 0.17879842429E+02 0.16514562468E+02 0.15211433627E+02 0.14019879391E+02 0.12984961193E+02
 0.12164158097E+02 0.11628446550E+02 0.11441398512E+02 0.11628399913E+02 0.12164108537E+02
 0.12984943628E+02 0.14019879402E+02 0.15211408777E+02 0.16514499928E+02 0.17879783279E+02
 0.19204707980E+02 0.20174191019E+02 0.20354855008E+02 0.19426696934E+02 0.17347929989E+02
 0.14454275605E+02 0.11432945229E+02 0.91368768959E+01 0.82787528843E+01 0.91368981141E+01
 0.14499860957E+02 0.16887341568E+02 0.18851855274E+02 0.19979756718E+02 0.20174120135E+02
 0.19618184836E+02 0.18650880444E+02 0.17562725527E+02 0.16454363176E+02 0.15366320430E+02
 0.14330981709E+02 0.13402833925E+02 0.12683605742E+02 0.12286969472E+02 0.12286926070E+02
 0.12683517970E+02 0.13402777118E+02 0.14330977550E+02 0.15366324393E+02 0.16454328066E+02
 0.17562654361E+02 0.18650818790E+02 0.19618179917E+02 0.20174187186E+02 0.19979866152E+02
 0.18851945934E+02 0.16887360658E+02 0.14499805392E+02 0.12330202585E+02 0.11036400576E+02
 0.11036436725E+02 0.12330281479E+02 0.16097860394E+02 0.17752731047E+02 0.18902327904E+02
 0.19365402962E+02 0.19204707943E+02 0.18650880444E+02 0.17930588785E+02 0.17124503528E+02
 0.16256335691E+02 0.15328685158E+02 0.14376814338E+02 0.13516135598E+02 0.12906642559E+02
 0.12685541696E+02 0.12906585652E+02 0.13516058685E+02 0.14376764170E+02 0.15328678310E+02
 0.16256341111E+02 0.17124474299E+02 0.17930516381E+02 0.18650810958E+02 0.19204699769E+02
 0.19365471391E+02 0.18902431360E+02 0.17752805660E+02 0.16097868510E+02 0.14344678671E+02
 0.13004177941E+02 0.12502124958E+02 0.13004222730E+02 0.14344722885E+02 0.16219486255E+02
 0.17252460069E+02 0.17861632041E+02 0.18027078384E+02 0.17879842429E+02 0.17562725527E+02
 0.17124503528E+02 0.16567820418E+02 0.15860228088E+02 0.14998475936E+02 0.14083802409E+02
 0.13300843333E+02 0.12846447880E+02 0.12846438798E+02 0.13300810727E+02 0.14083749040E+02
 0.14998430741E+02 0.15860217277E+02 0.16567825974E+02 0.17124477184E+02 0.17562650813E+02
 0.17879765363E+02 0.18027064930E+02 0.17861700717E+02 0.17252562446E+02 0.16219551121E+02
 0.14965707677E+02 0.13825571390E+02 0.13145646943E+02 0.13145671405E+02 0.13825615557E+02
 0.14965712475E+02 0.15211966501E+02 0.15860155504E+02 0.16256335691E+02 0.16454389531E+02
 0.16514562468E+02 0.16454363176E+02 0.16256335691E+02 0.15860228088E+02 0.15212092513E+02
 0.14369773972E+02 0.13507988203E+02 0.12858408682E+02 0.12616499409E+02 0.12858428977E+02
 0.13507988245E+02 0.14369734452E+02 0.15212045955E+02 0.15860211687E+02 0.16256335881E+02
 0.16454334387E+02 0.16514494769E+02 0.16454330272E+02 0.16256335881E+02 0.15860212664E+02
 0.15212032545E+02 0.14369708892E+02 0.13507988245E+02 0.12858494581E+02 0.12616617453E+02
 0.12858504756E+02 0.13507988203E+02 0.14369674851E+02 0.13596338587E+02 0.14127765366E+02
 0.14572740216E+02 0.14935860774E+02 0.15211433627E+02 0.15366320430E+02 0.15328685158E+02
 0.14998475936E+02 0.14369773972E+02 0.13570988192E+02 0.12828675824E+02 0.12381519469E+02
 0.12381562767E+02 0.12828754053E+02 0.13571013879E+02 0.14369731087E+02 0.14998422932E+02
 0.15328666674E+02 0.15366319105E+02 0.15211413068E+02 0.14935819265E+02 0.14572704094E+02
 0.14127752105E+02 0.13596347581E+02 0.12980692643E+02 0.12340196565E+02 0.11795844851E+02
 0.11480663648E+02 0.11480644563E+02 0.11795800723E+02 0.12340152835E+02 0.12980664669E+02
 0.11880401660E+02 0.12462001924E+02 0.13029367805E+02 0.13562531779E+02 0.14019879391E+02
 0.14330981709E+02 0.14376814338E+02 0.14083802409E+02 0.13507988203E+02 0.12828675824E+02
 0.12284432051E+02 0.12076848464E+02 0.12284547825E+02 0.12828796998E+02 0.13508018847E+02
 0.14083754114E+02 0.14376764293E+02 0.14330970213E+02 0.14019879350E+02 0.13562506431E+02
 0.13029322934E+02 0.12461971471E+02 0.11880403571E+02 0.11300167585E+02 0.10751133028E+02
 0.10282458025E+02 0.99603866627E+01 0.98450112266E+01 0.99603809503E+01 0.10282443992E+02
 0.10751109909E+02 0.11300144940E+02 0.10330343913E+02 0.11003095999E+02 0.11701291437E+02
 0.12383510917E+02 0.12984961193E+02 0.13402833925E+02 0.13516135598E+02 0.13300843333E+02
 0.12858408682E+02 0.12381519469E+02 0.12076848464E+02 0.12076917667E+02 0.12381670152E+02
 0.12858526544E+02 0.13300864991E+02 0.13516092915E+02 0.13402794798E+02 0.12984948016E+02
 0.12383495271E+02 0.11701255726E+02 0.11003066690E+02 0.10330352672E+02 0.97068379198E+01
 0.91515638639E+01 0.86894967099E+01 0.83531344605E+01 0.81747844603E+01 0.81748048089E+01
 0.83531759949E+01 0.86895188288E+01 0.91515455228E+01 0.97068026526E+01 0.90337045524E+01
 0.98083332768E+01 0.10628538615E+02 0.11439423995E+02 0.12164158097E+02 0.12683605742E+02
 0.12906642559E+02 0.12846447880E+02 0.12616499409E+02 0.12381562767E+02 0.12284547825E+02
 0.12381670152E+02 0.12616634670E+02 0.12846526064E+02 0.12906642793E+02 0.12683569760E+02
 0.12164133648E+02 0.11439421398E+02 0.10628538538E+02 0.98083208409E+01 0.90336854819E+01
 0.83381068023E+01 0.77401310708E+01 0.72525920139E+01 0.68886963586E+01 0.66625870845E+01
 0.65857347683E+01 0.66625867005E+01 0.68886931273E+01 0.72525868501E+01 0.77401311518E+01
 0.83381186429E+01 0.80256070978E+01 0.89022004495E+01 0.98381306424E+01 0.10774031362E+02
 0.11628446550E+02 0.12286969472E+02 0.12685541696E+02 0.12846438798E+02 0.12858428977E+02
 0.12828754053E+02 0.12828796998E+02 0.12858526544E+02 0.12846526064E+02 0.12685576347E+02
 0.12286959797E+02 0.11628430704E+02 0.10774036225E+02 0.98381500738E+01 0.89022073688E+01
 0.80255834972E+01 0.72473739926E+01 0.65879729060E+01 0.60556219686E+01 0.56533175676E+01
 0.53830985376E+01 0.52471791412E+01 0.52471605872E+01 0.53830555888E+01 0.56532804745E+01
 0.60556179077E+01 0.65880048605E+01 0.72474174253E+01 0.73124113895E+01 0.82945290169E+01
 0.93526765650E+01 0.10428588038E+02 0.11441398512E+02 0.12286926070E+02 0.12906585652E+02
 0.13300810727E+02 0.13507988245E+02 0.13571013879E+02 0.13508018847E+02 0.13300864991E+02
 0.12906642793E+02 0.12286959797E+02 0.11441400189E+02 0.10428574337E+02 0.93526687271E+01
 0.82945308504E+01 0.73124128555E+01 0.64462062617E+01 0.57164674056E+01 0.51287622265E+01
 0.46801563065E+01 0.43648952950E+01 0.41778482215E+01 0.41158449609E+01 0.41778491717E+01
 0.43648949919E+01 0.46801550312E+01 0.51287638164E+01 0.57164731404E+01 0.64462107716E+01
 0.68888884145E+01 0.79897172548E+01 0.91887882747E+01 0.10428586308E+02 0.11628399913E+02
 0.12683517970E+02 0.13516058685E+02 0.14083749040E+02 0.14369734452E+02 0.14369731087E+02
 0.14083754114E+02 0.13516092915E+02 0.12683569760E+02 0.11628430704E+02 0.10428574337E+02
 0.91887532672E+01 0.79896967239E+01 0.68888992077E+01 0.59248992840E+01 0.51164617023E+01
 0.44660104296E+01 0.39657181634E+01 0.36038023393E+01 0.33691708453E+01 0.32538709487E+01
 0.32538840538E+01 0.33692013087E+01 0.36038315544E+01 0.39657315020E+01 0.44660025918E+01
 0.51164360855E+01 0.59248699053E+01 0.67485973599E+01 0.79897017751E+01 0.93526686602E+01
 0.10774021247E+02 0.12164108537E+02 0.13402777118E+02 0.14376764170E+02 0.14998430741E+02
 0.15212045955E+02 0.14998422932E+02 0.14376764293E+02 0.13402794798E+02 0.12164133648E+02
 0.10774036225E+02 0.93526687271E+01 0.79896967239E+01 0.67485963130E+01 0.56689368092E+01
 0.47678651810E+01 0.40443438845E+01 0.34855803323E+01 0.30739733232E+01 0.27927108688E+01
 0.26290215894E+01 0.25752888739E+01 0.26290223549E+01 0.27927107318E+01 0.30739726189E+01
 0.34855812344E+01 0.40443459359E+01 0.47678651773E+01 0.56689348715E+01 0.68888945645E+01
 0.82945068044E+01 0.98381228962E+01 0.11439403464E+02 0.12984943628E+02 0.14330977550E+02
 0.15328678310E+02 0.15860217277E+02 0.15860211687E+02 0.15328666674E+02 0.14330970213E+02
 0.12984948016E+02 0.11439421398E+02 0.98381500738E+01 0.82945308504E+01 0.68888992077E+01
 0.56689368092E+01 0.46537762776E+01 0.38403701641E+01 0.32113455537E+01 0.27431469559E+01
 0.24128339935E+01 0.22023056872E+01 0.20998285455E+01 0.20998248931E+01 0.22022931541E+01
 0.24128126667E+01 0.27431261805E+01 0.32113413355E+01 0.38403901927E+01 0.46538084522E+01
 0.56689575457E+01 0.73124114482E+01 0.89022015903E+01 0.10628530379E+02 0.12383489333E+02
 0.14019879402E+02 0.15366324393E+02 0.16256341111E+02 0.16567825974E+02 0.16256335881E+02
 0.15366319105E+02 0.14019879350E+02 0.12383495271E+02 0.10628538538E+02 0.89022073688E+01
 0.73124128555E+01 0.59248992840E+01 0.47678651810E+01 0.38403701641E+01 0.31223800910E+01
 0.25848661273E+01 0.21983465495E+01 0.19385492533E+01 0.17887897569E+01 0.17398327599E+01
 0.17887902828E+01 0.19385503623E+01 0.21983477619E+01 0.25848667219E+01 0.31223802477E+01
 0.38403710251E+01 0.47678672144E+01 0.59249009423E+01 0.80255927243E+01 0.98083378803E+01
 0.11701268332E+02 0.13562509596E+02 0.15211408777E+02 0.16454328066E+02 0.17124474299E+02
 0.17124477184E+02 0.16454334387E+02 0.15211413068E+02 0.13562506431E+02 0.11701255726E+02
 0.98083208409E+01 0.80255834972E+01 0.64462062617E+01 0.51164617023E+01 0.40443438845E+01
 0.32113455537E+01 0.25848661273E+01 0.21291212784E+01 0.18128917937E+01 0.16133937283E+01
 0.15167758050E+01 0.15167741539E+01 0.16133944718E+01 0.18129041873E+01 0.21291437112E+01
 0.25848828551E+01 0.32113408915E+01 0.40443192170E+01 0.51164354755E+01 0.64461965203E+01
 0.90336805619E+01 0.11003062942E+02 0.13029322906E+02 0.14935823010E+02 0.16514499928E+02
 0.17562654361E+02 0.17930516381E+02 0.17562650813E+02 0.16514494769E+02 0.14935819265E+02
 0.13029322934E+02 0.11003066690E+02 0.90336854819E+01 0.72473739926E+01 0.57164674056E+01
 0.44660104296E+01 0.34855803323E+01 0.27431469559E+01 0.21983465495E+01 0.18128917937E+01
 0.15567475166E+01 0.14100778012E+01 0.13622702221E+01 0.14100780503E+01 0.15567478038E+01
 0.18128919083E+01 0.21983466541E+01 0.27431476537E+01 0.34855819631E+01 0.44660121328E+01
 0.57164673094E+01 0.72473709176E+01 0.10330323338E+02 0.12461943932E+02 0.14572697642E+02
 0.16454343588E+02 0.17879783279E+02 0.18650818790E+02 0.18650810958E+02 0.17879765363E+02
 0.16454330272E+02 0.14572704094E+02 0.12461971471E+02 0.10330352672E+02 0.83381068023E+01
 0.65879729060E+01 0.51287622265E+01 0.39657181634E+01 0.30739733232E+01 0.24128339935E+01
 0.19385492533E+01 0.16133937283E+01 0.14100778012E+01 0.13121281605E+01 0.13121299830E+01
 0.14100815574E+01 0.16133931094E+01 0.19385367397E+01 0.24128127364E+01 0.30739616760E+01
 0.39657328391E+01 0.51287962320E+01 0.65879980026E+01 0.83381014425E+01 0.11880401595E+02
 0.14127751917E+02 0.16256341187E+02 0.18027074906E+02 0.19204707980E+02 0.19618179917E+02
 0.19204699769E+02 0.18027064930E+02 0.16256335881E+02 0.14127752105E+02 0.11880403571E+02
 0.97068379198E+01 0.77401310708E+01 0.60556219686E+01 0.46801563065E+01 0.36038023393E+01
 0.27927108688E+01 0.22023056872E+01 0.17887897569E+01 0.15167758050E+01 0.13622702221E+01
 0.13121299830E+01 0.13622701678E+01 0.15167757105E+01 0.17887901390E+01 0.22023069555E+01
 0.27927121946E+01 0.36038023462E+01 0.46801550751E+01 0.60556210116E+01 0.77401308682E+01
 0.97068370636E+01 0.13596377772E+02 0.15860228097E+02 0.17861707334E+02 0.19365478228E+02
 0.20174191019E+02 0.20174187186E+02 0.19365471391E+02 0.17861700717E+02 0.15860212664E+02
 0.13596347581E+02 0.11300167585E+02 0.91515638639E+01 0.72525920139E+01 0.56533175676E+01
 0.43648952950E+01 0.33691708453E+01 0.26290215894E+01 0.20998285455E+01 0.17398327599E+01
 0.15167741539E+01 0.14100780503E+01 0.14100815574E+01 0.15167757105E+01 0.17398248393E+01
 0.20998268063E+01 0.26290438343E+01 0.33692017241E+01 0.43648973376E+01 0.56532805938E+01
 0.72525506589E+01 0.91515566274E+01 0.11300193922E+02 0.15212046154E+02 0.17252572300E+02
 0.18902431595E+02 0.19979861895E+02 0.20354855008E+02 0.19979866152E+02 0.18902431360E+02
 0.17252562446E+02 0.15212032545E+02 0.12980692643E+02 0.10751133028E+02 0.86894967099E+01
 0.68886963586E+01 0.53830985376E+01 0.41778482215E+01 0.32538709487E+01 0.25752888739E+01
 0.20998248931E+01 0.17887902828E+01 0.16133944718E+01 0.15567478038E+01 0.16133931094E+01
 0.17887901390E+01 0.20998268063E+01 0.25752906410E+01 0.32538711317E+01 0.41778482723E+01
 0.53830994588E+01 0.68886961905E+01 0.86894944718E+01 0.10751133084E+02 0.12980700502E+02
 0.16219563205E+02 0.17752791825E+02 0.18851903054E+02 0.19426672207E+02 0.19426696934E+02
 0.18851945934E+02 0.17752805660E+02 0.16219551121E+02 0.14369708892E+02 0.12340196565E+02
 0.10282458025E+02 0.83531344605E+01 0.66625870845E+01 0.52471791412E+01 0.41158449609E+01
 0.32538840538E+01 0.26290223549E+01 0.22022931541E+01 0.19385503623E+01 0.18129041873E+01
 0.18128919083E+01 0.19385367397E+01 0.22023069555E+01 0.26290438343E+01 0.32538711317E+01
 0.41158028531E+01 0.52471612354E+01 0.66626197764E+01 0.83531797005E+01 0.10282470423E+02
 0.12340185272E+02 0.14369710460E+02 0.16097860919E+02 0.16887304587E+02 0.17347873332E+02
 0.17498723850E+02 0.17347929989E+02 0.16887360658E+02 0.16097868510E+02 0.14965707677E+02
 0.13507988245E+02 0.11795844851E+02 0.99603866627E+01 0.81747844603E+01 0.65857347683E+01
 0.52471605872E+01 0.41778491717E+01 0.33692013087E+01 0.27927107318E+01 0.24128126667E+01
 0.21983477619E+01 0.21291437112E+01 0.21983466541E+01 0.24128127364E+01 0.27927121946E+01
 0.33692017241E+01 0.41778482723E+01 0.52471612354E+01 0.65857363702E+01 0.81747815040E+01
 0.99603808009E+01 0.11795851988E+02 0.13508018779E+02 0.14965739764E+02 0.14499750675E+02
 0.14454210010E+02 0.14378351313E+02 0.14378379532E+02 0.14454275605E+02 0.14499805392E+02
 0.14344678671E+02 0.13825571390E+02 0.12858494581E+02 0.11480663648E+02 0.98450112266E+01
 0.81748048089E+01 0.66625867005E+01 0.53830555888E+01 0.43648949919E+01 0.36038315544E+01
 0.30739726189E+01 0.27431261805E+01 0.25848667219E+01 0.25848828551E+01 0.27431476537E+01
 0.30739616760E+01 0.36038023462E+01 0.43648973376E+01 0.53830994588E+01 0.66626197764E+01
 0.81747815040E+01 0.98449576421E+01 0.11480646152E+02 0.12858534742E+02 0.13825620657E+02
 0.14344678743E+02 0.11432822829E+02 0.10688657895E+02 0.10401893559E+02 0.10688757278E+02
 0.11432945229E+02 0.12330202585E+02 0.13004177941E+02 0.13145646943E+02 0.12616617453E+02
 0.11480644563E+02 0.99603809503E+01 0.83531759949E+01 0.68886931273E+01 0.56532804745E+01
 0.46801550312E+01 0.39657315020E+01 0.34855812344E+01 0.32113413355E+01 0.31223802477E+01
 0.32113408915E+01 0.34855819631E+01 0.39657328391E+01 0.46801550751E+01 0.56532805938E+01
 0.68886961905E+01 0.83531797005E+01 0.99603808009E+01 0.11480646152E+02 0.12616634316E+02
 0.13145674613E+02 0.13004178075E+02 0.12330134651E+02 0.73756025395E+01 0.63194577988E+01
 0.63195392759E+01 0.73757769693E+01 0.91368768959E+01 0.11036400576E+02 0.12502124958E+02
 0.13145671405E+02 0.12858504756E+02 0.11795800723E+02 0.10282443992E+02 0.86895188288E+01
 0.72525868501E+01 0.60556179077E+01 0.51287638164E+01 0.44660025918E+01 0.40443459359E+01
 0.38403901927E+01 0.38403710251E+01 0.40443192170E+01 0.44660121328E+01 0.51287962320E+01
 0.60556210116E+01 0.72525506589E+01 0.86894944718E+01 0.10282470423E+02 0.11795851988E+02
 0.12858534742E+02 0.13145674613E+02 0.12502111781E+02 0.11036341348E+02 0.91367355630E+01
 0.32416888592E+01 0.24341909889E+01 0.32417389546E+01 0.54100575289E+01 0.82787528843E+01
 0.11036436725E+02 0.13004222730E+02 0.13825615557E+02 0.13507988203E+02 0.12340152835E+02
 0.10751109909E+02 0.91515455228E+01 0.77401311518E+01 0.65880048605E+01 0.57164731404E+01
 0.51164360855E+01 0.47678651773E+01 0.46538084522E+01 0.47678672144E+01 0.51164354755E+01
 0.57164673094E+01 0.65879980026E+01 0.77401308682E+01 0.91515566274E+01 0.10751133084E+02
 0.12340185272E+02 0.13508018779E+02 0.13825620657E+02 0.13004178075E+02 0.11036341348E+02
 0.82786373980E+01 0.54099626542E+01 0.14033535087E+00 0.14028719227E+00 0.20951665210E+01
 0.54100140893E+01 0.91368981141E+01 0.12330281479E+02 0.14344722885E+02 0.14965712475E+02
 0.14369674851E+02 0.12980664669E+02 0.11300144940E+02 0.97068026526E+01 0.83381186429E+01
 0.72474174253E+01 0.64462107716E+01 0.59248699053E+01 0.56689348715E+01 0.56689575457E+01
 0.59249009423E+01 0.64461965203E+01 0.72473709176E+01 0.83381014425E+01 0.97068370636E+01
 0.11300193922E+02 0.12980700502E+02 0.14369710460E+02 0.14965739764E+02 0.14344678743E+02
 0.12330134651E+02 0.91367355630E+01 0.54099626542E+01 0.20952293577E+01 0.14027240982E+00
 0.24342331130E+01 0.63194829719E+01 0.10688665379E+02 0.14454251261E+02 0.16887392471E+02
 0.17752874118E+02 0.17252598965E+02 0.15860208536E+02 0.14127726555E+02 0.12461926436E+02
 0.11003041706E+02 0.98083191580E+01 0.89022096762E+01 0.82945375390E+01 0.79897155781E+01
 0.79896966795E+01 0.82945089527E+01 0.89022121192E+01 0.98083474725E+01 0.11003064785E+02
 0.12461941494E+02 0.14127747766E+02 0.15860215797E+02 0.17252557600E+02 0.17752813530E+02
 0.16887399120E+02 0.14454342197E+02 0.10688721678E+02 0.63193815767E+01 0.24340284795E+01
 0.14016619265E+00 0.24342331130E+01 0.56891574032E+01 0.10011947382E+02 0.14235504695E+02
 0.17413890571E+02 0.19065082655E+02 0.19197776585E+02 0.18184316952E+02 0.16567768715E+02
 0.14855307504E+02 0.13282839039E+02 0.11928104084E+02 0.10832459666E+02 0.10024193170E+02
 0.95272781717E+01 0.93594366565E+01 0.95272874048E+01 0.10024193726E+02 0.10832445091E+02
 0.11928096627E+02 0.13282866180E+02 0.14855362307E+02 0.16567806328E+02 0.18184302531E+02
 0.19197733241E+02 0.19065072301E+02 0.17413933267E+02 0.14235531435E+02 0.10011864828E+02
 0.56889693655E+01 0.24340703588E+01 0.12222040163E+01 0.63194829719E+01 0.10011947382E+02
 0.14139626174E+02 0.17662478320E+02 0.19895973188E+02 0.20635729319E+02 0.20097794384E+02
 0.18752350219E+02 0.17124395421E+02 0.15544108126E+02 0.14111852701E+02 0.12878962198E+02
 0.11888762875E+02 0.11188953480E+02 0.10824837387E+02 0.10824861126E+02 0.11188990489E+02
 0.11888759376E+02 0.12878923074E+02 0.14111839665E+02 0.15544159788E+02 0.17124477981E+02
 0.18752401105E+02 0.20097792599E+02 0.20635699881E+02 0.19895936241E+02 0.17662425504E+02
 0.14139549690E+02 0.10011865490E+02 0.63194243775E+01 0.41318943183E+01 0.41319146489E+01
 0.10688665379E+02 0.14235504695E+02 0.17662478320E+02 0.20180822454E+02 0.21402146980E+02
 0.21362534689E+02 0.20408563736E+02 0.19016526367E+02 0.17562602122E+02 0.16170846824E+02
 0.14892749735E+02 0.13775285166E+02 0.12880581986E+02 0.12292755952E+02 0.12086889345E+02
 0.12292800085E+02 0.12880621785E+02 0.13775279807E+02 0.14892711638E+02 0.16170828745E+02
 0.17562646138E+02 0.19016625040E+02 0.20408660692E+02 0.21362561507E+02 0.21402074049E+02
 0.20180686720E+02 0.17662358733E+02 0.14235460312E+02 0.10688690926E+02 0.80030723967E+01
 0.70006557861E+01 0.80030335205E+01 0.14454251261E+02 0.17413890571E+02 0.19895973188E+02
 0.21402146980E+02 0.21805374500E+02 0.21304068844E+02 0.20279555885E+02 0.19093081134E+02
 0.17879780315E+02 0.16680103697E+02 0.15518595521E+02 0.14460471866E+02 0.13632110171E+02
 0.13172848287E+02 0.13172870832E+02 0.13632158392E+02 0.14460502893E+02 0.15518579154E+02
 0.16680053779E+02 0.17879752840E+02 0.19093129282E+02 0.20279673067E+02 0.21304178649E+02
 0.21805391872E+02 0.21402056042E+02 0.19895839447E+02 0.17413796309E+02 0.14454227059E+02
 0.11785864633E+02 0.10199690887E+02 0.10199678388E+02 0.11785847551E+02 0.16887392471E+02
 0.19065082655E+02 0.20635729319E+02 0.21362534689E+02 0.21304068844E+02 0.20724092677E+02
 0.19921360910E+02 0.19016625599E+02 0.18027106516E+02 0.16935092334E+02 0.15789319615E+02
 0.14740660164E+02 0.13993531398E+02 0.13721850763E+02 0.13993551623E+02 0.14740688032E+02
 0.15789327930E+02 0.16935060176E+02 0.18027052766E+02 0.19016606664E+02 0.19921419273E+02
 0.20724208724E+02 0.21304169980E+02 0.21362553273E+02 0.20635655300E+02 0.19064967873E+02
 0.16887305543E+02 0.14615009033E+02 0.12888937222E+02 0.12244049255E+02 0.12888933303E+02
 0.14615038436E+02 0.17752874118E+02 0.19197776585E+02 0.20097794384E+02 0.20408563736E+02
 0.20279555885E+02 0.19921360910E+02 0.19416055379E+02 0.18752445783E+02 0.17861706424E+02
 0.16749107385E+02 0.15557282905E+02 0.14533829279E+02 0.13939207542E+02 0.13939200506E+02
 0.14533817966E+02 0.15557279425E+02 0.16749101573E+02 0.17861677067E+02 0.18752400999E+02
 0.19416044375E+02 0.19921425363E+02 0.20279671065E+02 0.20408647101E+02 0.20097783058E+02
 0.19197688420E+02 0.17752784571E+02 0.16038392024E+02 0.14495888222E+02 0.13580314600E+02
 0.13580302015E+02 0.14495875893E+02 0.16038426594E+02 0.17252598965E+02 0.18184316952E+02
 0.18752350219E+02 0.19016526367E+02 0.19093081134E+02 0.19016625599E+02 0.18752445783E+02
 0.18184319958E+02 0.17252526381E+02 0.16053492677E+02 0.14836649213E+02 0.13923861939E+02
 0.13584622614E+02 0.13923795334E+02 0.14836577261E+02 0.16053466746E+02 0.17252532180E+02
 0.18184307913E+02 0.18752408726E+02 0.19016616521E+02 0.19093140978E+02 0.19016619973E+02
 0.18752401305E+02 0.18184294588E+02 0.17252541785E+02 0.16053509735E+02 0.14836617118E+02
 0.13923780419E+02 0.13584544712E+02 0.13923775069E+02 0.14836625079E+02 0.16053549413E+02
 0.15860208536E+02 0.16567768715E+02 0.17124395421E+02 0.17562602122E+02 0.17879780315E+02
 0.18027106516E+02 0.17861706424E+02 0.17252526381E+02 0.16219539287E+02 0.14965776369E+02
 0.13825687256E+02 0.13145713186E+02 0.13145632824E+02 0.13825518597E+02 0.14965655801E+02
 0.16219523884E+02 0.17252557350E+02 0.17861705473E+02 0.18027071695E+02 0.17879770840E+02
 0.17562652656E+02 0.17124474216E+02 0.16567818059E+02 0.15860204001E+02 0.14998416041E+02
 0.14083748770E+02 0.13300844863E+02 0.12846505382E+02 0.12846511663E+02 0.13300866768E+02
 0.14083787088E+02 0.14998454058E+02 0.14127726555E+02 0.14855307504E+02 0.15544108126E+02
 0.16170846824E+02 0.16680103697E+02 0.16935092334E+02 0.16749107385E+02 0.16053492677E+02
 0.14965776369E+02 0.13775740950E+02 0.12852640156E+02 0.12504858719E+02 0.12852453919E+02
 0.13775519902E+02 0.14965668111E+02 0.16053508880E+02 0.16749151882E+02 0.16935090474E+02
 0.16680073119E+02 0.16170847903E+02 0.15544159527E+02 0.14855369448E+02 0.14127752788E+02
 0.13378183834E+02 0.12637326942E+02 0.11981652375E+02 0.11522358704E+02 0.11356508531E+02
 0.11522364450E+02 0.11981671862E+02 0.12637357159E+02 0.13378199604E+02 0.12461926436E+02
 0.13282839039E+02 0.14111852701E+02 0.14892749735E+02 0.15518595521E+02 0.15789319615E+02
 0.15557282905E+02 0.14836649213E+02 0.13825687256E+02 0.12852640156E+02 0.12257954774E+02
 0.12257853759E+02 0.12852417702E+02 0.13825504941E+02 0.14836598469E+02 0.15557324128E+02
 0.15789357620E+02 0.15518585741E+02 0.14892720389E+02 0.14111847152E+02 0.13282865391E+02
 0.12461962464E+02 0.11680668134E+02 0.10966048270E+02 0.10356797855E+02 0.99042494711E+01
 0.96606002894E+01 0.96606086495E+01 0.99042675200E+01 0.10356811001E+02 0.10966044942E+02
 0.11680644574E+02 0.11003041706E+02 0.11928104084E+02 0.12878962198E+02 0.13775285166E+02
 0.14460471866E+02 0.14740660164E+02 0.14533829279E+02 0.13923861939E+02 0.13145713186E+02
 0.12504858719E+02 0.12257853759E+02 0.12504723746E+02 0.13145539677E+02 0.13923754880E+02
 0.14533819453E+02 0.14740700448E+02 0.14460495894E+02 0.13775264014E+02 0.12878918221E+02
 0.11928082316E+02 0.11003065858E+02 0.10152489411E+02 0.94046869137E+01 0.87816966802E+01
 0.83078782295E+01 0.80094072493E+01 0.79072434080E+01 0.80094355426E+01 0.83079108163E+01
 0.87817015734E+01 0.94046519388E+01 0.10152438780E+02 0.98083191580E+01 0.10832459666E+02
 0.11888762875E+02 0.12880581986E+02 0.13632110171E+02 0.13993531398E+02 0.13939207542E+02
 0.13584622614E+02 0.13145632824E+02 0.12852453919E+02 0.12852417702E+02 0.13145539677E+02
 0.13584515724E+02 0.13939138930E+02 0.13993525413E+02 0.13632141147E+02 0.12880599884E+02
 0.11888746348E+02 0.10832433943E+02 0.98083166513E+01 0.88764863235E+01 0.80710494439E+01
 0.74092751718E+01 0.69013679494E+01 0.65559978704E+01 0.63809094432E+01 0.63809037152E+01
 0.65559911973E+01 0.69013722433E+01 0.74092799110E+01 0.80710381162E+01 0.88764683965E+01
 0.89022096762E+01 0.10024193170E+02 0.11188953480E+02 0.12292755952E+02 0.13172848287E+02
 0.13721850763E+02 0.13939200506E+02 0.13923795334E+02 0.13825518597E+02 0.13775519902E+02
 0.13825504941E+02 0.13923754880E+02 0.13939138930E+02 0.13721801378E+02 0.13172838254E+02
 0.12292777427E+02 0.11188978124E+02 0.10024203466E+02 0.89022046925E+01 0.78857236455E+01
 0.70120792423E+01 0.62974783485E+01 0.57452889149E+01 0.53535938302E+01 0.51197162251E+01
 0.50419259373E+01 0.51196813539E+01 0.53535571562E+01 0.57452808906E+01 0.62974988184E+01
 0.70121067856E+01 0.78857419041E+01 0.82945375390E+01 0.95272781717E+01 0.10824837387E+02
 0.12086889345E+02 0.13172870832E+02 0.13993551623E+02 0.14533817966E+02 0.14836577261E+02
 0.14965655801E+02 0.14965668111E+02 0.14836598469E+02 0.14533819453E+02 0.13993525413E+02
 0.13172838254E+02 0.12086875457E+02 0.10824843602E+02 0.95272857514E+01 0.82945334210E+01
 0.71854940886E+01 0.62360513748E+01 0.54604163805E+01 0.48573916872E+01 0.44180753071E+01
 0.41320861963E+01 0.39912577182E+01 0.39912589746E+01 0.41320884985E+01 0.44180751234E+01
 0.48573874277E+01 0.54604128205E+01 0.62360555695E+01 0.71855041852E+01 0.79897155781E+01
 0.93594366565E+01 0.10824861126E+02 0.12292800085E+02 0.13632158392E+02 0.14740688032E+02
 0.15557279425E+02 0.16053466746E+02 0.16219523884E+02 0.16053508880E+02 0.15557324128E+02
 0.14740700448E+02 0.13632141147E+02 0.12292777427E+02 0.10824843602E+02 0.93594170103E+01
 0.79896949599E+01 0.67699345180E+01 0.57318615417E+01 0.48857352561E+01 0.42255029542E+01
 0.37362170686E+01 0.34010014353E+01 0.32058089179E+01 0.31417523213E+01 0.32058315053E+01
 0.34010342367E+01 0.37362362080E+01 0.42254901639E+01 0.48857001730E+01 0.57318356823E+01
 0.67699372224E+01 0.79896966795E+01 0.95272874048E+01 0.11188990489E+02 0.12880621785E+02
 0.14460502893E+02 0.15789327930E+02 0.16749101573E+02 0.17252532180E+02 0.17252557350E+02
 0.16749151882E+02 0.15789357620E+02 0.14460495894E+02 0.12880599884E+02 0.11188978124E+02
 0.95272857514E+01 0.79896949599E+01 0.66323104032E+01 0.54845101725E+01 0.45523688421E+01
 0.38244841564E+01 0.32796736639E+01 0.28945829951E+01 0.26492640636E+01 0.25299973471E+01
 0.25299940864E+01 0.26492591493E+01 0.28945830818E+01 0.32796766377E+01 0.38244835435E+01
 0.45523653161E+01 0.54845100916E+01 0.66323140824E+01 0.82945089527E+01 0.10024193726E+02
 0.11888759376E+02 0.13775279807E+02 0.15518579154E+02 0.16935060176E+02 0.17861677067E+02
 0.18184307913E+02 0.17861705473E+02 0.16935090474E+02 0.15518585741E+02 0.13775264014E+02
 0.11888746348E+02 0.10024203466E+02 0.82945334210E+01 0.67699345180E+01 0.54845101725E+01
 0.44433382989E+01 0.36307201031E+01 0.30193240257E+01 0.25789610133E+01 0.22832454137E+01
 0.21131158313E+01 0.20575772604E+01 0.21131022246E+01 0.22832211743E+01 0.25789380168E+01
 0.30193201911E+01 0.36307428601E+01 0.44433720558E+01 0.54845273107E+01 0.67699226770E+01
 0.89022121192E+01 0.10832445091E+02 0.12878923074E+02 0.14892711638E+02 0.16680053779E+02
 0.18027052766E+02 0.18752400999E+02 0.18752408726E+02 0.18027071695E+02 0.16680073119E+02
 0.14892720389E+02 0.12878918221E+02 0.10832433943E+02 0.89022046925E+01 0.71854940886E+01
 0.57318615417E+01 0.45523688421E+01 0.36307201031E+01 0.29349054123E+01 0.24280068493E+01
 0.20765516591E+01 0.18552648336E+01 0.17482973170E+01 0.17482984862E+01 0.18552661756E+01
 0.20765502468E+01 0.24280040295E+01 0.29349051306E+01 0.36307228126E+01 0.45523706677E+01