   2   2   0   0
  0.2001288E+02  0.3839590E-09  0.3839590E-09  0.3839590E-09  0.5000000E-15
  1.000000000000000E-004
  CAR 
 unknown system                          
     79.51309601    -10.55362101 2000      5.75731388      1.00000000
    -10.554  0.0000E+00  0.0000E+00
    -10.509  0.0000E+00  0.0000E+00
    -10.464  0.0000E+00  0.0000E+00
    -10.418  0.0000E+00  0.0000E+00
    -10.373  0.0000E+00  0.0000E+00
    -10.328  0.0000E+00  0.0000E+00
    -10.283  0.0000E+00  0.0000E+00
    -10.238  0.0000E+00  0.0000E+00
    -10.193  0.0000E+00  0.0000E+00
    -10.148  0.0000E+00  0.0000E+00
    -10.103  0.0000E+00  0.0000E+00
    -10.058  0.0000E+00  0.0000E+00
    -10.013  0.0000E+00  0.0000E+00
     -9.968  0.0000E+00  0.0000E+00
     -9.923  0.0000E+00  0.0000E+00
     -9.878  0.0000E+00  0.0000E+00
     -9.833  0.0000E+00  0.0000E+00
     -9.788  0.0000E+00  0.0000E+00
     -9.743  0.0000E+00  0.0000E+00
     -9.698  0.0000E+00  0.0000E+00
     -9.653  0.0000E+00  0.0000E+00
     -9.607  0.0000E+00  0.0000E+00
     -9.562  0.0000E+00  0.0000E+00
     -9.517  0.0000E+00  0.0000E+00
     -9.472  0.0000E+00  0.0000E+00
     -9.427  0.0000E+00  0.0000E+00
     -9.382  0.0000E+00  0.0000E+00
     -9.337  0.0000E+00  0.0000E+00
     -9.292  0.0000E+00  0.0000E+00
     -9.247  0.0000E+00  0.0000E+00
     -9.202  0.0000E+00  0.0000E+00
     -9.157  0.0000E+00  0.0000E+00
     -9.112  0.0000E+00  0.0000E+00
     -9.067  0.0000E+00  0.0000E+00
     -9.022  0.0000E+00  0.0000E+00
     -8.977  0.0000E+00  0.0000E+00
     -8.932  0.0000E+00  0.0000E+00
     -8.887  0.0000E+00  0.0000E+00
     -8.841  0.0000E+00  0.0000E+00
     -8.796  0.0000E+00  0.0000E+00
     -8.751  0.0000E+00  0.0000E+00
     -8.706  0.0000E+00  0.0000E+00
     -8.661  0.0000E+00  0.0000E+00
     -8.616  0.0000E+00  0.0000E+00
     -8.571  0.0000E+00  0.0000E+00
     -8.526  0.0000E+00  0.0000E+00
     -8.481  0.0000E+00  0.0000E+00
     -8.436  0.0000E+00  0.0000E+00
     -8.391  0.0000E+00  0.0000E+00
     -8.346  0.0000E+00  0.0000E+00
     -8.301  0.0000E+00  0.0000E+00
     -8.256  0.0000E+00  0.0000E+00
     -8.211  0.0000E+00  0.0000E+00
     -8.166  0.0000E+00  0.0000E+00
     -8.121  0.0000E+00  0.0000E+00
     -8.076  0.0000E+00  0.0000E+00
     -8.030  0.0000E+00  0.0000E+00
     -7.985  0.0000E+00  0.0000E+00
     -7.940  0.0000E+00  0.0000E+00
     -7.895  0.0000E+00  0.0000E+00
     -7.850  0.0000E+00  0.0000E+00
     -7.805  0.0000E+00  0.0000E+00
     -7.760  0.0000E+00  0.0000E+00
     -7.715  0.0000E+00  0.0000E+00
     -7.670  0.0000E+00  0.0000E+00
     -7.625  0.0000E+00  0.0000E+00
     -7.580  0.0000E+00  0.0000E+00
     -7.535  0.0000E+00  0.0000E+00
     -7.490  0.0000E+00  0.0000E+00
     -7.445  0.0000E+00  0.0000E+00
     -7.400  0.0000E+00  0.0000E+00
     -7.355  0.0000E+00  0.0000E+00
     -7.310  0.0000E+00  0.0000E+00
     -7.265  0.0000E+00  0.0000E+00
     -7.219  0.0000E+00  0.0000E+00
     -7.174  0.0000E+00  0.0000E+00
     -7.129  0.0000E+00  0.0000E+00
     -7.084  0.0000E+00  0.0000E+00
     -7.039  0.0000E+00  0.0000E+00
     -6.994  0.0000E+00  0.0000E+00
     -6.949  0.0000E+00  0.0000E+00
     -6.904  0.0000E+00  0.0000E+00
     -6.859  0.0000E+00  0.0000E+00
     -6.814  0.0000E+00  0.0000E+00
     -6.769  0.0000E+00  0.0000E+00
     -6.724  0.2730E-13  0.1230E-14
     -6.679  0.1982E-09  0.8930E-11
     -6.634  0.2943E-06  0.1327E-07
     -6.589  0.9088E-04  0.4108E-05
     -6.544  0.5995E-02  0.2742E-03
     -6.499  0.8792E-01  0.4236E-02
     -6.454  0.3006E+00  0.1778E-01
     -6.408  0.2478E+00  0.2894E-01
     -6.363  0.4893E-01  0.3115E-01
     -6.318  0.2224E-02  0.3125E-01
     -6.273  0.2221E-04  0.3125E-01
     -6.228  0.4696E-07  0.3125E-01
     -6.183  0.2054E-10  0.3125E-01
     -6.138  0.1848E-14  0.3125E-01
     -6.093  0.0000E+00  0.3125E-01
     -6.048  0.0000E+00  0.3125E-01
     -6.003  0.0000E+00  0.3125E-01
     -5.958  0.0000E+00  0.3125E-01
     -5.913  0.2167E-11  0.3125E-01
     -5.868  0.1071E-07  0.3125E-01
     -5.823  0.1086E-04  0.3125E-01
     -5.778  0.2302E-02  0.3135E-01
     -5.733  0.1052E+00  0.3609E-01
     -5.688  0.1080E+01  0.8475E-01
     -5.643  0.2613E+01  0.2025E+00
     -5.597  0.1528E+01  0.2714E+00
     -5.552  0.2126E+00  0.2809E+00
     -5.507  0.7204E-02  0.2813E+00
     -5.462  0.3286E-01  0.2827E+00
     -5.417  0.5005E+00  0.3053E+00
     -5.372  0.1778E+01  0.3854E+00
     -5.327  0.1522E+01  0.4540E+00
     -5.282  0.3124E+00  0.4681E+00
     -5.237  0.1478E-01  0.4687E+00
     -5.192  0.1537E-03  0.4687E+00
     -5.147  0.3389E-06  0.4687E+00
     -5.102  0.1546E-09  0.4687E+00
     -5.057  0.1432E-13  0.4688E+00
     -5.012  0.0000E+00  0.4688E+00
     -4.967  0.0000E+00  0.4688E+00
     -4.922  0.0000E+00  0.4688E+00
     -4.877  0.0000E+00  0.4688E+00
     -4.832  0.0000E+00  0.4688E+00
     -4.786  0.0000E+00  0.4688E+00
     -4.741  0.0000E+00  0.4688E+00
     -4.696  0.6006E-14  0.4688E+00
     -4.651  0.8439E-10  0.4688E+00
     -4.606  0.2349E-06  0.4688E+00
     -4.561  0.1350E-03  0.4688E+00
     -4.516  0.1637E-01  0.4695E+00
     -4.471  0.4336E+00  0.4890E+00
     -4.426  0.2629E+01  0.6075E+00
     -4.381  0.3804E+01  0.7789E+00
     -4.336  0.1329E+01  0.8388E+00
     -4.291  0.1089E+00  0.8437E+00
     -4.246  0.2873E-02  0.8438E+00
     -4.201  0.4386E-01  0.8458E+00
     -4.156  0.4907E+00  0.8679E+00
     -4.111  0.1291E+01  0.9260E+00
     -4.066  0.8200E+00  0.9630E+00
     -4.021  0.1241E+00  0.9686E+00
     -3.975  0.4289E-02  0.9687E+00
     -3.930  0.3283E-04  0.9688E+00
     -3.885  0.2993E-03  0.9688E+00
     -3.840  0.3526E-01  0.9704E+00
     -3.795  0.9086E+00  0.1011E+01
     -3.750  0.5362E+01  0.1253E+01
     -3.705  0.7559E+01  0.1593E+01
     -3.660  0.2572E+01  0.1709E+01
     -3.615  0.2050E+00  0.1719E+01
     -3.570  0.3652E-02  0.1719E+01
     -3.525  0.1394E-04  0.1719E+01
     -3.480  0.1109E-07  0.1719E+01
     -3.435  0.1807E-11  0.1719E+01
     -3.390  0.0000E+00  0.1719E+01
     -3.345  0.0000E+00  0.1719E+01
     -3.300  0.0000E+00  0.1719E+01
     -3.255  0.0000E+00  0.1719E+01
     -3.210  0.0000E+00  0.1719E+01
     -3.164  0.0000E+00  0.1719E+01
     -3.119  0.0000E+00  0.1719E+01
     -3.074  0.0000E+00  0.1719E+01
     -3.029  0.0000E+00  0.1719E+01
     -2.984  0.0000E+00  0.1719E+01
     -2.939  0.0000E+00  0.1719E+01
     -2.894  0.0000E+00  0.1719E+01
     -2.849  0.0000E+00  0.1719E+01
     -2.804  0.0000E+00  0.1719E+01
     -2.759  0.0000E+00  0.1719E+01
     -2.714  0.0000E+00  0.1719E+01
     -2.669  0.0000E+00  0.1719E+01
     -2.624  0.0000E+00  0.1719E+01
     -2.579  0.1005E-12  0.1719E+01
     -2.534  0.7907E-09  0.1719E+01
     -2.489  0.1271E-05  0.1719E+01
     -2.444  0.4245E-03  0.1719E+01
     -2.399  0.3023E-01  0.1720E+01
     -2.353  0.4775E+00  0.1742E+01
     -2.308  0.1755E+01  0.1821E+01
     -2.263  0.1557E+01  0.1891E+01
     -2.218  0.5133E+00  0.1914E+01
     -2.173  0.1768E+01  0.1994E+01
     -2.128  0.3947E+01  0.2172E+01
     -2.083  0.2149E+01  0.2268E+01
     -2.038  0.2779E+00  0.2281E+01
     -1.993  0.8153E-02  0.2281E+01
     -1.948  0.5191E-04  0.2281E+01
     -1.903  0.6944E-07  0.2281E+01
     -1.858  0.1912E-10  0.2281E+01
     -1.813  0.9240E-15  0.2281E+01
     -1.768  0.0000E+00  0.2281E+01
     -1.723  0.1396E-11  0.2281E+01
     -1.678  0.6604E-08  0.2281E+01
     -1.633  0.6415E-05  0.2281E+01
     -1.587  0.1304E-02  0.2281E+01
     -1.542  0.5714E-01  0.2284E+01
     -1.497  0.5638E+00  0.2309E+01
     -1.452  0.1312E+01  0.2368E+01
     -1.407  0.7382E+00  0.2402E+01
     -1.362  0.9866E-01  0.2406E+01
     -1.317  0.2996E-02  0.2406E+01
     -1.272  0.1976E-04  0.2406E+01
     -1.227  0.2741E-07  0.2406E+01
     -1.182  0.7824E-11  0.2406E+01
     -1.137  0.2227E-11  0.2406E+01
     -1.092  0.1319E-07  0.2406E+01
     -1.047  0.1601E-04  0.2406E+01
     -1.002  0.4054E-02  0.2406E+01
     -0.957  0.2202E+00  0.2416E+01
     -0.912  0.2674E+01  0.2537E+01
     -0.867  0.7617E+01  0.2880E+01
     -0.822  0.5238E+01  0.3116E+01
     -0.776  0.8599E+00  0.3155E+01
     -0.731  0.3230E-01  0.3156E+01
     -0.686  0.2650E-03  0.3156E+01
     -0.641  0.4587E-06  0.3156E+01
     -0.596  0.1639E-09  0.3156E+01
     -0.551  0.1109E-13  0.3156E+01
     -0.506  0.0000E+00  0.3156E+01
     -0.461  0.0000E+00  0.3156E+01
     -0.416  0.0000E+00  0.3156E+01
     -0.371  0.0000E+00  0.3156E+01
     -0.326  0.0000E+00  0.3156E+01
     -0.281  0.0000E+00  0.3156E+01
     -0.236  0.5729E-12  0.3156E+01
     -0.191  0.3793E-08  0.3156E+01
     -0.146  0.5139E-05  0.3156E+01
     -0.101  0.1450E-02  0.3156E+01
     -0.056  0.8755E-01  0.3160E+01
     -0.011  0.1178E+01  0.3213E+01
      0.035  0.3708E+01  0.3380E+01
      0.080  0.2815E+01  0.3507E+01
      0.125  0.5112E+00  0.3530E+01
      0.170  0.2131E-01  0.3531E+01
      0.215  0.1946E-03  0.3531E+01
      0.260  0.3758E-06  0.3531E+01
      0.305  0.1499E-09  0.3531E+01
      0.350  0.1201E-13  0.3531E+01
      0.395  0.0000E+00  0.3531E+01
      0.440  0.0000E+00  0.3531E+01
      0.485  0.0000E+00  0.3531E+01
      0.530  0.0000E+00  0.3531E+01
      0.575  0.0000E+00  0.3531E+01
      0.620  0.0000E+00  0.3531E+01
      0.665  0.0000E+00  0.3531E+01
      0.710  0.0000E+00  0.3531E+01
      0.755  0.0000E+00  0.3531E+01
      0.800  0.0000E+00  0.3531E+01
      0.846  0.0000E+00  0.3531E+01
      0.891  0.0000E+00  0.3531E+01
      0.936  0.0000E+00  0.3531E+01
      0.981  0.0000E+00  0.3531E+01
      1.026  0.0000E+00  0.3531E+01
      1.071  0.0000E+00  0.3531E+01
      1.116  0.0000E+00  0.3531E+01
      1.161  0.0000E+00  0.3531E+01
      1.206  0.0000E+00  0.3531E+01
      1.251  0.0000E+00  0.3531E+01
      1.296  0.4928E-14  0.3531E+01
      1.341  0.6467E-10  0.3531E+01
      1.386  0.1755E-06  0.3531E+01
      1.431  0.9836E-04  0.3531E+01
      1.476  0.1164E-01  0.3532E+01
      1.521  0.3030E+00  0.3545E+01
      1.566  0.1893E+01  0.3631E+01
      1.611  0.3863E+01  0.3805E+01
      1.657  0.4719E+01  0.4017E+01
      1.702  0.3512E+01  0.4176E+01
      1.747  0.3789E+01  0.4346E+01
      1.792  0.3293E+01  0.4495E+01
      1.837  0.7703E+00  0.4529E+01
      1.882  0.1884E+00  0.4538E+01
      1.927  0.2228E+01  0.4638E+01
      1.972  0.8220E+01  0.5009E+01
      2.017  0.7932E+01  0.5366E+01
      2.062  0.2116E+01  0.5461E+01
      2.107  0.1590E+00  0.5469E+01
      2.152  0.3206E-02  0.5469E+01
      2.197  0.1576E-04  0.5469E+01
      2.242  0.1729E-07  0.5469E+01
      2.287  0.4007E-11  0.5469E+01
      2.332  0.0000E+00  0.5469E+01
      2.377  0.2934E-13  0.5469E+01
      2.422  0.2819E-09  0.5469E+01
      2.468  0.5520E-06  0.5469E+01
      2.513  0.2239E-03  0.5469E+01
      2.558  0.1930E-01  0.5470E+01
      2.603  0.3669E+00  0.5486E+01
      2.648  0.1613E+01  0.5559E+01
      2.693  0.1703E+01  0.5636E+01
      2.738  0.4328E+00  0.5655E+01
      2.783  0.2553E-01  0.5656E+01
      2.828  0.3332E-03  0.5656E+01
      2.873  0.9260E-06  0.5656E+01
      2.918  0.5342E-09  0.5656E+01
      2.963  0.6283E-13  0.5656E+01
      3.008  0.1848E-14  0.5656E+01
      3.053  0.3212E-10  0.5656E+01
      3.098  0.1203E-06  0.5656E+01
      3.143  0.9271E-04  0.5656E+01
      3.188  0.1500E-01  0.5657E+01
      3.233  0.5265E+00  0.5681E+01
      3.279  0.4189E+01  0.5869E+01
      3.324  0.7908E+01  0.6226E+01
      3.369  0.3608E+01  0.6388E+01
      3.414  0.3891E+00  0.6406E+01
      3.459  0.9507E-02  0.6406E+01
      3.504  0.7202E-02  0.6407E+01
      3.549  0.2552E+00  0.6418E+01
      3.594  0.2064E+01  0.6511E+01
      3.639  0.3957E+01  0.6689E+01
      3.684  0.1834E+01  0.6772E+01
      3.729  0.2010E+00  0.6781E+01
      3.774  0.4971E-02  0.6781E+01
      3.819  0.2657E-04  0.6781E+01
      3.864  0.2974E-07  0.6781E+01
      3.909  0.6932E-11  0.6781E+01
      3.954  0.8158E-09  0.6781E+01
      3.999  0.1489E-05  0.6781E+01
      4.044  0.5637E-03  0.6781E+01
      4.090  0.4540E-01  0.6783E+01
      4.135  0.8079E+00  0.6820E+01
      4.180  0.3333E+01  0.6970E+01
      4.225  0.3348E+01  0.7121E+01
      4.270  0.1449E+01  0.7186E+01
      4.315  0.2408E+01  0.7295E+01
      4.360  0.2038E+01  0.7386E+01
      4.405  0.4212E+00  0.7405E+01
      4.450  0.2007E-01  0.7406E+01
      4.495  0.2103E-03  0.7406E+01
      4.540  0.4824E-06  0.7406E+01
      4.585  0.1662E-04  0.7406E+01
      4.630  0.3770E-02  0.7406E+01
      4.675  0.1839E+00  0.7415E+01
      4.720  0.2013E+01  0.7505E+01
      4.765  0.5181E+01  0.7739E+01
      4.810  0.3222E+01  0.7884E+01
      4.855  0.4774E+00  0.7906E+01
      4.901  0.1612E-01  0.7906E+01
      4.946  0.1186E-03  0.7906E+01
      4.991  0.1838E-06  0.7906E+01
      5.036  0.5869E-10  0.7906E+01
      5.081  0.3696E-14  0.7906E+01
      5.126  0.0000E+00  0.7906E+01
      5.171  0.0000E+00  0.7906E+01
      5.216  0.0000E+00  0.7906E+01
      5.261  0.5661E-12  0.7906E+01
      5.306  0.2975E-08  0.7906E+01
      5.351  0.3207E-05  0.7906E+01
      5.396  0.7221E-03  0.7906E+01
      5.441  0.3498E-01  0.7908E+01
      5.486  0.3803E+00  0.7925E+01
      5.531  0.9725E+00  0.7969E+01
      5.576  0.6009E+00  0.7996E+01
      5.621  0.8842E-01  0.8000E+01
      5.666  0.2966E-02  0.8000E+01
      5.712  0.2166E-04  0.8000E+01
      5.757  0.3332E-07  0.8000E+01
      5.802  0.1056E-10  0.8000E+01
      5.847  0.6930E-15  0.8000E+01
      5.892  0.0000E+00  0.8000E+01
      5.937  0.9933E-14  0.8000E+01
      5.982  0.1123E-09  0.8000E+01
      6.027  0.2612E-06  0.8000E+01
      6.072  0.1257E-03  0.8000E+01
      6.117  0.1280E-01  0.8001E+01
      6.162  0.2861E+00  0.8013E+01
      6.207  0.1472E+01  0.8080E+01
      6.252  0.1814E+01  0.8162E+01
      6.297  0.5388E+00  0.8186E+01
      6.342  0.3734E-01  0.8187E+01
      6.387  0.5755E-03  0.8187E+01
      6.432  0.1927E-05  0.8188E+01
      6.478  0.2398E-04  0.8188E+01
      6.523  0.3846E-02  0.8188E+01
      6.568  0.1338E+00  0.8194E+01
      6.613  0.1055E+01  0.8241E+01
      6.658  0.1976E+01  0.8330E+01
      6.703  0.8943E+00  0.8371E+01
      6.748  0.9561E-01  0.8375E+01
      6.793  0.2305E-02  0.8375E+01
      6.838  0.1295E-04  0.8375E+01
      6.883  0.4701E-03  0.8375E+01
      6.928  0.4942E-01  0.8377E+01
      6.973  0.1153E+01  0.8429E+01
      7.018  0.6312E+01  0.8714E+01
      7.063  0.8599E+01  0.9101E+01
      7.108  0.3023E+01  0.9237E+01
      7.153  0.2772E+00  0.9250E+01
      7.198  0.6563E-02  0.9250E+01
      7.243  0.3862E-04  0.9250E+01
      7.289  0.5308E-07  0.9250E+01
      7.334  0.1544E-07  0.9250E+01
      7.379  0.1451E-04  0.9250E+01
      7.424  0.2858E-02  0.9250E+01
      7.469  0.1215E+00  0.9256E+01
      7.514  0.1163E+01  0.9308E+01
      7.559  0.2631E+01  0.9427E+01
      7.604  0.1438E+01  0.9491E+01
      7.649  0.1866E+00  0.9500E+01
      7.694  0.5496E-02  0.9500E+01
      7.739  0.3514E-04  0.9500E+01
      7.784  0.4011E-05  0.9500E+01
      7.829  0.1191E-02  0.9500E+01
      7.874  0.7644E-01  0.9503E+01
      7.919  0.1092E+01  0.9553E+01
      7.964  0.3644E+01  0.9717E+01
      8.009  0.3038E+01  0.9854E+01
      8.054  0.1232E+01  0.9909E+01
      8.100  0.9703E+00  0.9953E+01
      8.145  0.3226E+00  0.9968E+01
      8.190  0.2575E-01  0.9969E+01
      8.235  0.4596E-03  0.9969E+01
      8.280  0.1759E-05  0.9969E+01
      8.325  0.1403E-08  0.9969E+01
      8.370  0.2605E-12  0.9969E+01
      8.415  0.2988E-09  0.9969E+01
      8.460  0.5786E-06  0.9969E+01
      8.505  0.2322E-03  0.9969E+01
      8.550  0.1980E-01  0.9970E+01
      8.595  0.3725E+00  0.9986E+01
      8.640  0.1622E+01  0.1006E+02
      8.685  0.1696E+01  0.1014E+02
      8.730  0.4292E+00  0.1016E+02
      8.775  0.1414E+00  0.1016E+02
      8.820  0.1165E+01  0.1021E+02
      8.865  0.2832E+01  0.1034E+02
      8.911  0.1813E+01  0.1042E+02
      8.956  0.8703E+00  0.1046E+02
      9.001  0.3455E+01  0.1062E+02
      9.046  0.5101E+01  0.1085E+02
      9.091  0.1827E+01  0.1093E+02
      9.136  0.1536E+00  0.1094E+02
      9.181  0.2889E-02  0.1094E+02
      9.226  0.1167E-04  0.1094E+02
      9.271  0.9825E-08  0.1094E+02
      9.316  0.1695E-11  0.1094E+02
      9.361  0.0000E+00  0.1094E+02
      9.406  0.0000E+00  0.1094E+02
      9.451  0.0000E+00  0.1094E+02
      9.496  0.4620E-15  0.1094E+02
      9.541  0.1038E-10  0.1094E+02
      9.586  0.4196E-07  0.1094E+02
      9.631  0.3488E-04  0.1094E+02
      9.676  0.6082E-02  0.1094E+02
      9.722  0.2295E+00  0.1095E+02
      9.767  0.1960E+01  0.1104E+02
      9.812  0.3962E+01  0.1121E+02
      9.857  0.1954E+01  0.1130E+02
      9.902  0.8159E+00  0.1134E+02
      9.947  0.4434E+01  0.1154E+02
      9.992  0.7873E+01  0.1189E+02
     10.037  0.3383E+01  0.1205E+02
     10.082  0.3429E+00  0.1206E+02
     10.127  0.7832E-02  0.1206E+02
     10.172  0.1692E-02  0.1206E+02
     10.217  0.9580E-01  0.1207E+02
     10.262  0.1239E+01  0.1212E+02
     10.307  0.3750E+01  0.1229E+02
     10.352  0.2739E+01  0.1242E+02
     10.397  0.4829E+00  0.1244E+02
     10.442  0.2109E+00  0.1245E+02
     10.487  0.1791E+01  0.1253E+02
     10.533  0.3953E+01  0.1271E+02
     10.578  0.2156E+01  0.1280E+02
     10.623  0.1105E+01  0.1285E+02
     10.668  0.3380E+01  0.1300E+02
     10.713  0.3264E+01  0.1315E+02
     10.758  0.7591E+00  0.1319E+02
     10.803  0.4086E-01  0.1319E+02
     10.848  0.4855E-03  0.1319E+02
     10.893  0.1226E-05  0.1319E+02
     10.938  0.6417E-09  0.1319E+02
     10.983  0.7670E-13  0.1319E+02
     11.028  0.1285E-09  0.1319E+02
     11.073  0.3859E-06  0.1319E+02
     11.118  0.2417E-03  0.1319E+02
     11.163  0.3240E-01  0.1319E+02
     11.208  0.9670E+00  0.1323E+02
     11.253  0.6763E+01  0.1354E+02
     11.298  0.1163E+02  0.1406E+02
     11.344  0.5084E+01  0.1429E+02
     11.389  0.1782E+01  0.1437E+02
     11.434  0.6096E+01  0.1465E+02
     11.479  0.7117E+01  0.1497E+02
     11.524  0.2007E+01  0.1506E+02
     11.569  0.1721E+00  0.1506E+02
     11.614  0.7559E+00  0.1510E+02
     11.659  0.3256E+01  0.1525E+02
     11.704  0.3379E+01  0.1540E+02
     11.749  0.8434E+00  0.1544E+02
     11.794  0.4884E-01  0.1544E+02
     11.839  0.7987E-03  0.1544E+02
     11.884  0.1959E-01  0.1544E+02
     11.929  0.4852E+00  0.1546E+02
     11.974  0.2755E+01  0.1558E+02
     12.019  0.3741E+01  0.1575E+02
     12.064  0.1226E+01  0.1581E+02
     12.109  0.9398E-01  0.1581E+02
     12.155  0.1608E-02  0.1581E+02
     12.200  0.5890E-05  0.1581E+02
     12.245  0.1073E-06  0.1581E+02
     12.290  0.6476E-04  0.1581E+02
     12.335  0.8594E-02  0.1581E+02
     12.380  0.2486E+00  0.1582E+02
     12.425  0.1641E+01  0.1590E+02
     12.470  0.2581E+01  0.1601E+02
     12.515  0.9805E+00  0.1606E+02
     12.560  0.8757E-01  0.1606E+02
     12.605  0.4231E-02  0.1606E+02
     12.650  0.1383E+00  0.1607E+02
     12.695  0.1726E+01  0.1615E+02
     12.740  0.5046E+01  0.1637E+02
     12.785  0.3561E+01  0.1653E+02
     12.830  0.6003E+00  0.1656E+02
     12.875  0.2317E-01  0.1656E+02
     12.920  0.1955E-03  0.1656E+02
     12.966  0.3483E-06  0.1656E+02
     13.011  0.4802E-09  0.1656E+02
     13.056  0.6120E-06  0.1656E+02
     13.101  0.2211E-03  0.1656E+02
     13.146  0.1711E-01  0.1656E+02
     13.191  0.2993E+00  0.1658E+02
     13.236  0.1307E+01  0.1664E+02
     13.281  0.1675E+01  0.1671E+02
     13.326  0.7455E+00  0.1674E+02
     13.371  0.1153E+00  0.1675E+02
     13.416  0.5276E-01  0.1675E+02
     13.461  0.2464E+00  0.1676E+02
     13.506  0.3314E+00  0.1678E+02
     13.551  0.5603E+00  0.1680E+02
     13.596  0.1754E+01  0.1688E+02
     13.641  0.1562E+01  0.1695E+02
     13.686  0.3348E+00  0.1697E+02
     13.732  0.1657E-01  0.1697E+02
     13.777  0.1805E-03  0.1697E+02
     13.822  0.4173E-06  0.1697E+02
     13.867  0.1998E-09  0.1697E+02
     13.912  0.1940E-13  0.1697E+02
     13.957  0.0000E+00  0.1697E+02
     14.002  0.0000E+00  0.1697E+02
     14.047  0.0000E+00  0.1697E+02
     14.092  0.0000E+00  0.1697E+02
     14.137  0.0000E+00  0.1697E+02
     14.182  0.0000E+00  0.1697E+02
     14.227  0.3551E-12  0.1697E+02
     14.272  0.2331E-08  0.1697E+02
     14.317  0.3191E-05  0.1697E+02
     14.362  0.9376E-03  0.1697E+02
     14.407  0.6175E-01  0.1697E+02
     14.452  0.9637E+00  0.1701E+02
     14.497  0.3772E+01  0.1718E+02
     14.543  0.3837E+01  0.1736E+02
     14.588  0.1009E+01  0.1740E+02
     14.633  0.6551E-01  0.1741E+02
     14.678  0.9892E-03  0.1741E+02
     14.723  0.3290E-05  0.1741E+02
     14.768  0.2319E-08  0.1741E+02
     14.813  0.3384E-12  0.1741E+02
     14.858  0.0000E+00  0.1741E+02
     14.903  0.1746E-12  0.1741E+02
     14.948  0.1405E-08  0.1741E+02
     14.993  0.2311E-05  0.1741E+02
     15.038  0.7894E-03  0.1741E+02
     15.083  0.5747E-01  0.1741E+02
     15.128  0.9274E+00  0.1745E+02
     15.173  0.3479E+01  0.1761E+02
     15.218  0.3142E+01  0.1775E+02
     15.263  0.6812E+00  0.1778E+02
     15.308  0.3410E-01  0.1778E+02
     15.354  0.3760E-03  0.1778E+02
     15.399  0.8797E-06  0.1778E+02
     15.444  0.2872E-06  0.1778E+02
     15.489  0.1351E-03  0.1778E+02
     15.534  0.1348E-01  0.1778E+02
     15.579  0.2954E+00  0.1780E+02
     15.624  0.1493E+01  0.1786E+02
     15.669  0.1986E+01  0.1795E+02
     15.714  0.2949E+01  0.1808E+02
     15.759  0.7500E+01  0.1842E+02
     15.804  0.5545E+01  0.1867E+02
     15.849  0.9849E+00  0.1872E+02
     15.894  0.4013E-01  0.1872E+02
     15.939  0.3777E-03  0.1872E+02
     15.984  0.4816E-02  0.1872E+02
     16.029  0.2582E+00  0.1873E+02
     16.074  0.3279E+01  0.1888E+02
     16.119  0.1110E+02  0.1938E+02
     16.165  0.1151E+02  0.1990E+02
     16.210  0.3938E+01  0.2007E+02
     16.255  0.4172E+00  0.2009E+02
     16.300  0.1186E-01  0.2009E+02
     16.345  0.8040E-04  0.2009E+02
     16.390  0.1679E-06  0.2009E+02
     16.435  0.3300E-04  0.2009E+02
     16.480  0.4862E-02  0.2009E+02
     16.525  0.1557E+00  0.2010E+02
     16.570  0.1134E+01  0.2015E+02
     16.615  0.1963E+01  0.2024E+02
     16.660  0.8243E+00  0.2028E+02
     16.705  0.1682E+00  0.2029E+02
     16.750  0.5998E+00  0.2031E+02
     16.795  0.1037E+01  0.2036E+02
     16.840  0.1338E+01  0.2042E+02
     16.885  0.3601E+01  0.2058E+02
     16.930  0.4160E+01  0.2077E+02
     16.976  0.2692E+01  0.2089E+02
     17.021  0.9483E+00  0.2093E+02
     17.066  0.9911E-01  0.2094E+02
     17.111  0.2416E-02  0.2094E+02
     17.156  0.1278E-04  0.2094E+02
     17.201  0.5633E-05  0.2094E+02
     17.246  0.1405E-02  0.2094E+02
     17.291  0.7535E-01  0.2094E+02
     17.336  0.9043E+00  0.2098E+02
     17.381  0.2546E+01  0.2110E+02
     17.426  0.1731E+01  0.2117E+02
     17.471  0.2808E+00  0.2119E+02
     17.516  0.1042E-01  0.2119E+02
     17.561  0.9299E-04  0.2119E+02
     17.606  0.2532E-02  0.2119E+02
     17.651  0.1595E+00  0.2119E+02
     17.696  0.2237E+01  0.2130E+02
     17.741  0.7324E+01  0.2163E+02
     17.787  0.5783E+01  0.2189E+02
     17.832  0.1093E+01  0.2194E+02
     17.877  0.4750E-01  0.2194E+02
     17.922  0.4528E-03  0.2194E+02
     17.967  0.5556E-04  0.2194E+02
     18.012  0.7059E-02  0.2194E+02
     18.057  0.2037E+00  0.2195E+02
     18.102  0.1510E+01  0.2202E+02
     18.147  0.3989E+01  0.2219E+02
     18.192  0.5349E+01  0.2244E+02
     18.237  0.6639E+01  0.2273E+02
     18.282  0.8012E+01  0.2310E+02
     18.327  0.3122E+01  0.2324E+02
     18.372  0.2931E+00  0.2325E+02
     18.417  0.8149E-02  0.2325E+02
     18.462  0.1200E+00  0.2326E+02
     18.507  0.2157E+01  0.2335E+02
     18.552  0.1155E+02  0.2387E+02
     18.598  0.1781E+02  0.2468E+02
     18.643  0.7674E+01  0.2502E+02
     18.688  0.9589E+00  0.2506E+02
     18.733  0.1063E+01  0.2511E+02
     18.778  0.3591E+01  0.2527E+02
     18.823  0.2996E+01  0.2541E+02
     18.868  0.6016E+00  0.2544E+02
     18.913  0.1514E+00  0.2544E+02
     18.958  0.1425E+01  0.2551E+02
     19.003  0.3852E+01  0.2568E+02
     19.048  0.2514E+01  0.2579E+02
     19.093  0.3914E+00  0.2581E+02
     19.138  0.1402E-01  0.2581E+02
     19.183  0.1171E-01  0.2581E+02
     19.228  0.2694E+00  0.2583E+02
     19.273  0.1437E+01  0.2589E+02
     19.318  0.1836E+01  0.2597E+02
     19.363  0.5656E+00  0.2600E+02
     19.409  0.4069E-01  0.2600E+02
     19.454  0.6518E-03  0.2600E+02
     19.499  0.2233E-05  0.2600E+02
     19.544  0.1592E-08  0.2600E+02
     19.589  0.2324E-12  0.2600E+02
     19.634  0.0000E+00  0.2600E+02
     19.679  0.0000E+00  0.2600E+02
     19.724  0.0000E+00  0.2600E+02
     19.769  0.0000E+00  0.2600E+02
     19.814  0.0000E+00  0.2600E+02
     19.859  0.0000E+00  0.2600E+02
     19.904  0.0000E+00  0.2600E+02
     19.949  0.3628E-12  0.2600E+02
     19.994  0.2716E-08  0.2600E+02
     20.039  0.4157E-05  0.2600E+02
     20.084  0.1323E-02  0.2600E+02
     20.129  0.8982E-01  0.2600E+02
     20.174  0.1355E+01  0.2607E+02
     20.220  0.4762E+01  0.2628E+02
     20.265  0.4032E+01  0.2646E+02
     20.310  0.8186E+00  0.2650E+02
     20.355  0.3829E-01  0.2650E+02
     20.400  0.3936E-03  0.2650E+02
     20.445  0.8576E-06  0.2650E+02
     20.490  0.3866E-09  0.2650E+02
     20.535  0.3573E-13  0.2650E+02
     20.580  0.0000E+00  0.2650E+02
     20.625  0.3850E-16  0.2650E+02
     20.670  0.5143E-12  0.2650E+02
     20.715  0.2276E-08  0.2650E+02
     20.760  0.2069E-05  0.2650E+02
     20.805  0.3940E-03  0.2650E+02
     20.850  0.1620E-01  0.2650E+02
     20.895  0.1503E+00  0.2651E+02
     20.940  0.3295E+00  0.2652E+02
     20.985  0.1746E+00  0.2653E+02
     21.031  0.2195E-01  0.2653E+02
     21.076  0.6256E-03  0.2653E+02
     21.121  0.3867E-05  0.2653E+02
     21.166  0.5018E-08  0.2653E+02
     21.211  0.1340E-11  0.2653E+02
     21.256  0.7700E-16  0.2653E+02
     21.301  0.0000E+00  0.2653E+02
     21.346  0.0000E+00  0.2653E+02
     21.391  0.0000E+00  0.2653E+02
     21.436  0.0000E+00  0.2653E+02
     21.481  0.0000E+00  0.2653E+02
     21.526  0.0000E+00  0.2653E+02
     21.571  0.0000E+00  0.2653E+02
     21.616  0.0000E+00  0.2653E+02
     21.661  0.0000E+00  0.2653E+02
     21.706  0.0000E+00  0.2653E+02
     21.751  0.2617E-12  0.2653E+02
     21.797  0.1972E-08  0.2653E+02
     21.842  0.3037E-05  0.2653E+02
     21.887  0.9723E-03  0.2653E+02
     21.932  0.6644E-01  0.2653E+02
     21.977  0.1008E+01  0.2658E+02
     22.022  0.3564E+01  0.2674E+02
     22.067  0.3035E+01  0.2688E+02
     22.112  0.6225E+00  0.2691E+02
     22.157  0.1673E+00  0.2691E+02
     22.202  0.1511E+01  0.2698E+02
     22.247  0.3886E+01  0.2716E+02
     22.292  0.2416E+01  0.2726E+02
     22.337  0.4218E+00  0.2728E+02
     22.382  0.1327E+01  0.2734E+02
     22.427  0.6205E+01  0.2762E+02
     22.472  0.7024E+01  0.2794E+02
     22.517  0.1915E+01  0.2803E+02
     22.562  0.1215E+00  0.2803E+02
     22.608  0.4039E-02  0.2803E+02
     22.653  0.1210E+00  0.2804E+02
     22.698  0.1408E+01  0.2810E+02
     22.743  0.3844E+01  0.2827E+02
     22.788  0.2535E+01  0.2839E+02
     22.833  0.3987E+00  0.2841E+02
     22.878  0.1741E-01  0.2841E+02
     22.923  0.1464E+00  0.2841E+02
     22.968  0.1583E+01  0.2848E+02
     23.013  0.4493E+01  0.2869E+02
     23.058  0.5346E+01  0.2893E+02
     23.103  0.3942E+01  0.2911E+02
     23.148  0.1059E+01  0.2915E+02
     23.193  0.7133E-01  0.2916E+02
     23.238  0.2079E-01  0.2916E+02
     23.283  0.6283E+00  0.2919E+02
     23.328  0.4560E+01  0.2939E+02
     23.373  0.8100E+01  0.2976E+02
     23.419  0.5641E+01  0.3001E+02
     23.464  0.5589E+01  0.3026E+02
     23.509  0.2842E+01  0.3039E+02
     23.554  0.5940E+00  0.3042E+02
     23.599  0.1607E+01  0.3049E+02
     23.644  0.2595E+01  0.3061E+02
     23.689  0.1019E+01  0.3065E+02
     23.734  0.9414E-01  0.3066E+02
     23.779  0.1952E-02  0.3066E+02
     23.824  0.2748E-04  0.3066E+02
     23.869  0.3210E-02  0.3066E+02
     23.914  0.1189E+00  0.3066E+02
     23.959  0.9971E+00  0.3071E+02
     24.004  0.1992E+01  0.3080E+02
     24.049  0.1294E+01  0.3085E+02
     24.094  0.2478E+01  0.3097E+02
     24.139  0.3919E+01  0.3114E+02
     24.184  0.2101E+01  0.3124E+02
     24.230  0.4512E+01  0.3144E+02
     24.275  0.9127E+01  0.3185E+02
     24.320  0.7270E+01  0.3218E+02
     24.365  0.3129E+01  0.3232E+02
     24.410  0.5293E+00  0.3234E+02
     24.455  0.5530E+00  0.3237E+02
     24.500  0.2192E+01  0.3247E+02
     24.545  0.4025E+01  0.3265E+02
     24.590  0.4146E+01  0.3284E+02
     24.635  0.1428E+01  0.3290E+02
     24.680  0.1222E+00  0.3291E+02
     24.725  0.2360E-02  0.3291E+02
     24.770  0.2944E-04  0.3291E+02
     24.815  0.4727E-02  0.3291E+02
     24.860  0.2444E+00  0.3292E+02
     24.905  0.2830E+01  0.3304E+02
     24.950  0.7707E+01  0.3339E+02
     24.995  0.5294E+01  0.3363E+02
     25.041  0.1862E+01  0.3371E+02
     25.086  0.1169E+01  0.3377E+02
     25.131  0.3795E+00  0.3378E+02
     25.176  0.1599E+01  0.3386E+02
     25.221  0.6699E+01  0.3416E+02
     25.266  0.7494E+01  0.3450E+02
     25.311  0.3578E+01  0.3466E+02
     25.356  0.1210E+01  0.3471E+02
     25.401  0.2028E+00  0.3472E+02
     25.446  0.9076E+00  0.3476E+02
     25.491  0.4537E+01  0.3497E+02
     25.536  0.9660E+01  0.3540E+02
     25.581  0.1039E+02  0.3587E+02
     25.626  0.5564E+01  0.3612E+02
     25.671  0.1952E+01  0.3621E+02
     25.716  0.8220E+00  0.3625E+02
     25.761  0.1839E+01  0.3633E+02
     25.806  0.1447E+01  0.3639E+02
     25.852  0.2749E+00  0.3641E+02
     25.897  0.6235E-01  0.3641E+02
     25.942  0.6374E+00  0.3644E+02
     25.987  0.1886E+01  0.3652E+02
     26.032  0.1348E+01  0.3658E+02
     26.077  0.2300E+00  0.3659E+02
     26.122  0.8995E-02  0.3659E+02
     26.167  0.7692E-04  0.3659E+02
     26.212  0.1389E-06  0.3659E+02
     26.257  0.5180E-10  0.3659E+02
     26.302  0.4620E-14  0.3659E+02
     26.347  0.1585E-10  0.3659E+02
     26.392  0.5262E-07  0.3659E+02
     26.437  0.3599E-04  0.3659E+02
     26.482  0.5181E-02  0.3659E+02
     26.527  0.1622E+00  0.3660E+02
     26.572  0.1155E+01  0.3665E+02
     26.617  0.1958E+01  0.3674E+02