    2    2    1    1
  0.2001288E+02  0.3839590E-09  0.3839590E-09  0.3839590E-09  0.5000000E-15
  1.000000000000000E-004
  CAR 
 unknown system                          
    8    8   64
 
  0.0000000E+00  0.0000000E+00  0.0000000E+00  0.1562500E-01
   1       -6.459679
   2        5.516037
   3        5.516045
   4        5.516045
   5        8.065427
   6        8.065436
   7        8.065436
   8        8.879632
   9       13.275259
  10       13.275259
  11       13.467684
  12       16.765774
  13       16.765780
  14       16.765780
  15       20.920284
  16       28.847484
  17       28.847523
  18       28.847523
  19       30.017025
  20       30.017025
  21       31.416009
  22       31.416055
  23       31.416055
  24       34.770931
  25       34.770931
  26       34.770988
  27       40.828070
  28       40.828268
  29       40.828268
  30       43.920594
  31       44.677707
  32       44.677707
  33       46.339962
  34       46.339962
  35       47.885234
  36       47.885256
  37       47.885256
  38       49.557230
  39       49.557255
  40       49.557255
  41       50.190678
  42       50.563111
  43       50.563111
  44       50.563168
  45       50.615311
  46       50.615332
  47       50.615332
  48       51.949933
  49       51.949933
  50       51.949959
  51       56.004879
  52       57.188113
  53       57.188147
  54       57.188147
  55       57.402093
  56       57.402127
  57       57.402127
  58       62.590570
  59       63.597175
  60       72.389612
  61       72.389612
  62       75.419040
  63       75.419154
  64       75.419154
 
  0.2500000E+00  0.0000000E+00  0.0000000E+00  0.1250000E+00
   1       -5.659564
   2        1.577435
   3        4.750296
   4        4.750303
   5        7.539668
   6        9.013154
   7        9.013169
   8       12.439263
   9       12.729188
  10       12.729214
  11       14.505568
  12       17.368768
  13       20.214256
  14       20.214275
  15       23.443781
  16       23.443853
  17       23.614162
  18       25.612622
  19       29.818067
  20       29.818332
  21       32.314145
  22       32.314170
  23       33.665762
  24       35.195401
  25       35.478494
  26       37.456846
  27       37.456973
  28       39.285178
  29       39.285193
  30       40.182629
  31       40.182676
  32       43.845701
  33       43.845767
  34       43.930667
  35       44.487676
  36       44.912812
  37       46.930653
  38       46.930766
  39       49.135396
  40       49.515292
  41       49.515381
  42       49.955249
  43       50.300272
  44       52.825910
  45       52.826401
  46       55.275708
  47       55.275765
  48       56.526765
  49       56.578717
  50       56.578810
  51       58.416538
  52       59.719544
  53       62.746880
  54       62.747097
  55       63.310556
  56       63.310591
  57       63.575667
  58       65.661597
  59       65.661709
  60       66.509096
  61       67.519107
  62       68.525342
  63       68.525654
  64       72.167680
 
  0.5000000E+00  0.0000000E+00  0.0000000E+00  0.6250000E-01
   1       -4.125033
   2       -1.470596
   3        4.310091
   4        4.310099
   5        7.048326
   6        8.847052
   7        8.847071
   8       13.234217
   9       16.150523
  10       16.150585
  11       16.877496
  12       16.877514
  13       16.891930
  14       18.532915
  15       25.042511
  16       25.532948
  17       27.266276
  18       27.266372
  19       27.488894
  20       27.489038
  21       31.348464
  22       32.086715
  23       32.086886
  24       33.160222
  25       33.160271
  26       33.859152
  27       36.562776
  28       38.106530
  29       38.106640
  30       38.583806
  31       38.583987
  32       39.624317
  33       41.967173
  34       42.332791
  35       46.524514
  36       46.524623
  37       48.315428
  38       48.315433
  39       48.441945
  40       49.562882
  41       52.530793
  42       52.531423
  43       54.262760
  44       54.263130
  45       55.054785
  46       58.357768
  47       58.385992
  48       58.386134
  49       59.732524
  50       59.732560
  51       59.915613
  52       61.677346
  53       61.677523
  54       64.448645
  55       64.448745
  56       65.067677
  57       65.576398
  58       65.576841
  59       67.315568
  60       68.324200
  61       68.324280
  62       68.954519
  63       69.774055
  64       70.341341
 
  0.2500000E+00  0.2500000E+00  0.0000000E+00  0.9375000E-01
   1       -5.377136
   2        1.993303
   3        3.614589
   4        3.614593
   5        6.632578
   6        8.641606
   7       11.279962
   8       11.279970
   9       13.592755
  10       14.487810
  11       16.950842
  12       18.563503
  13       18.563509
  14       19.281151
  15       22.997102
  16       22.997110
  17       23.980969
  18       25.976022
  19       26.589178
  20       30.622227
  21       32.099120
  22       33.010698
  23       33.010756
  24       35.108627
  25       35.108649
  26       35.438712
  27       36.002662
  28       40.539621
  29       40.777270
  30       41.142310
  31       41.142362
  32       42.922534
  33       42.995860
  34       42.995905
  35       46.367711
  36       46.367735
  37       46.542989
  38       46.883179
  39       47.123548
  40       49.621924
  41       49.621955
  42       49.781521
  43       51.995120
  44       53.158206
  45       53.158273
  46       54.645262
  47       54.807344
  48       56.479400
  49       56.630686
  50       56.630719
  51       57.591681
  52       58.811757
  53       61.784057
  54       63.002733
  55       63.002783
  56       65.612064
  57       68.095838
  58       68.095950
  59       68.458518
  60       68.851398
  61       68.971213
  62       68.971259
  63       69.604509
  64       72.334756
 
  0.5000000E+00  0.2500000E+00  0.0000000E+00  0.3750000E+00
   1       -3.739274
   2       -0.878499
   3        1.965820
   4        3.298702
   5        7.025440
   6        9.965075
   7       11.266755
   8       11.438642
   9       15.749573
  10       16.106132
  11       17.733969
  12       18.253046
  13       18.563017
  14       22.431228
  15       23.345687
  16       24.249025
  17       24.937061
  18       25.220965
  19       25.548539
  20       28.491593
  21       29.464931
  22       30.810235
  23       31.217862
  24       33.420661
  25       34.728054
  26       34.992792
  27       34.995726
  28       36.798079
  29       37.792710
  30       39.992604
  31       41.137190
  32       41.838195
  33       42.823551
  34       42.976724
  35       44.284282
  36       46.623972
  37       49.000921
  38       49.710528
  39       50.347584
  40       50.832909
  41       50.849601
  42       51.817093
  43       52.186462
  44       54.138349
  45       54.722662
  46       56.040669
  47       56.899643
  48       57.430837
  49       58.965942
  50       60.703917
  51       61.082703
  52       61.553179
  53       62.225170
  54       64.101939
  55       64.858455
  56       66.278839
  57       66.345132
  58       67.023820
  59       67.254166
  60       68.645857
  61       68.950261
  62       69.464259
  63       69.968091
  64       71.794970
 
 -0.2500000E+00  0.2500000E+00  0.0000000E+00  0.1875000E+00
   1       -4.414278
   2        0.025755
   3        1.745840
   4        4.179390
   5        7.957405
   6       10.297277
   7       10.666666
   8       11.660106
   9       11.984038
  10       15.170056
  11       18.167984
  12       18.772007
  13       18.989496
  14       22.231960
  15       22.729457
  16       23.064062
  17       24.309927
  18       26.935990
  19       27.274484
  20       29.619217
  21       30.355975
  22       30.945626
  23       32.445922
  24       32.670647
  25       33.515906
  26       34.896805
  27       36.059361
  28       36.827976
  29       39.966008
  30       40.045098
  31       41.739137
  32       42.763801
  33       43.058446
  34       43.603012
  35       44.071057
  36       44.176345
  37       44.289021
  38       48.159624
  39       49.576743
  40       51.017914
  41       52.066297
  42       52.155123
  43       54.695997
  44       54.849395
  45       56.122997
  46       56.229287
  47       56.288341
  48       57.668739
  49       58.364117
  50       59.631794
  51       60.214965
  52       61.739863
  53       62.402952
  54       62.793309
  55       63.316802
  56       63.678560
  57       65.942992
  58       66.687684
  59       66.804877
  60       66.917202
  61       68.144554
  62       69.998611
  63       70.664882
  64       71.377131
 
  0.5000000E+00  0.5000000E+00  0.0000000E+00  0.4687500E-01
   1       -2.312279
   2       -2.312277
   3        2.649484
   4        2.649488
   5        6.213799
   6        6.213808
   7       15.629875
   8       15.629882
   9       16.587448
  10       16.587454
  11       18.115372
  12       18.115372
  13       18.581612
  14       18.581632
  15       24.494062
  16       24.494106
  17       25.292974
  18       25.292977
  19       25.753965
  20       25.753971
  21       27.054820
  22       27.054863
  23       31.350427
  24       31.350630
  25       35.109982
  26       35.110037
  27       39.789780
  28       39.789802
  29       39.965045
  30       39.965130
  31       41.654744
  32       41.654754
  33       43.823003
  34       43.823004
  35       45.146477
  36       45.146495
  37       46.443092
  38       46.443133
  39       47.479805
  40       47.479853
  41       50.745268
  42       50.745301
  43       54.885578
  44       54.885603
  45       56.108567
  46       56.108573
  47       59.627660
  48       59.628109
  49       62.189940
  50       62.189951
  51       62.898031
  52       62.898118
  53       63.078885
  54       63.078900
  55       63.544214
  56       63.544245
  57       65.705074
  58       65.705114
  59       66.793514
  60       66.793517
  61       67.186102
  62       67.186104
  63       69.953416
  64       69.954087
 
 -0.2500000E+00  0.5000000E+00  0.2500000E+00  0.9375000E-01
   1       -2.147466
   2       -2.147463
   3        1.644563
   4        1.644567
   5        9.788909
   6        9.788934
   7       10.512581
   8       10.512585
   9       16.134149
  10       16.134149
  11       18.584922
  12       18.584944
  13       22.016671
  14       22.016691
  15       24.110153
  16       24.110184
  17       24.558213
  18       24.558296
  19       25.489658
  20       25.489689
  21       29.303254
  22       29.303345
  23       33.064649
  24       33.064686
  25       33.205852
  26       33.205883
  27       34.981955
  28       34.981971
  29       38.540790
  30       38.541065
  31       42.390167
  32       42.390168
  33       43.648202
  34       43.648285
  35       45.949562
  36       45.949735
  37       48.994735
  38       48.994980
  39       50.191444
  40       50.191529
  41       52.991395
  42       52.991411
  43       54.160508
  44       54.160511
  45       54.438312
  46       54.438353
  47       57.445072
  48       57.445398
  49       61.198637
  50       61.198763
  51       61.656982
  52       61.657026
  53       62.661405
  54       62.661651
  55       65.096347
  56       65.096770
  57       65.525211
  58       65.525877
  59       67.794271
  60       67.794649
  61       68.582903
  62       68.582984
  63       70.499004
  64       70.499111
