       N       E                     dE             d eps       ncg     rms          rms(c)
DIA:   1    -0.106389785320E+02   -0.10639E+02    0.00000E+00     0   0.000E+00    0.246E-04
DIA:   2    -0.106389785195E+02    0.12504E-07    0.00000E+00     0   0.000E+00
   1 F= -.10638979E+02 E0= -.10638979E+02  d E =-.102064E-12
 imaginary and real dielectric function
