<?xml version="1.0" encoding="ISO-8859-1"?>
<modeling>
 <generator>
  <i name="program" type="string">vasp </i>
  <i name="version" type="string">5.3.3  </i>
  <i name="subversion" type="string">18Dez12 (build Oct 09 2013 19:30:48) complex                          parallel </i>
  <i name="platform" type="string">NSC-VANILLA-B15 </i>
  <i name="date" type="string">2013 10 25 </i>
  <i name="time" type="string">13:55:56 </i>
 </generator>
 <incar>
  <i type="string" name="PREC">normal</i>
  <i type="string" name="ALGO"> Exact</i>
  <i type="int" name="NBANDS">    64</i>
  <i type="int" name="NEDOS">  2000</i>
  <i type="int" name="ISMEAR">     0</i>
  <i name="SIGMA">      0.05000000</i>
  <i type="logical" name="LOPTICS"> T  </i>
  <i type="string" name="GGA"> PE</i>
 </incar>
 <kpoints>
  <generation param="Gamma">
   <v type="int" name="divisions">       4        4        4 </v>
   <v name="usershift">      0.00000000       0.00000000       0.00000000 </v>
   <v name="genvec1">      0.25000000       0.00000000       0.00000000 </v>
   <v name="genvec2">      0.00000000       0.25000000       0.00000000 </v>
   <v name="genvec3">      0.00000000       0.00000000       0.25000000 </v>
   <v name="shift">      0.00000000       0.00000000       0.00000000 </v>
  </generation>
  <varray name="kpointlist" >
   <v>       0.00000000       0.00000000       0.00000000 </v>
   <v>       0.25000000       0.00000000       0.00000000 </v>
   <v>       0.50000000       0.00000000       0.00000000 </v>
   <v>       0.25000000       0.25000000       0.00000000 </v>
   <v>       0.50000000       0.25000000       0.00000000 </v>
   <v>      -0.25000000       0.25000000       0.00000000 </v>
   <v>       0.50000000       0.50000000       0.00000000 </v>
   <v>      -0.25000000       0.50000000       0.25000000 </v>
  </varray>
  <varray name="weights" >
   <v>       0.01562500 </v>
   <v>       0.12500000 </v>
   <v>       0.06250000 </v>
   <v>       0.09375000 </v>
   <v>       0.37500000 </v>
   <v>       0.18750000 </v>
   <v>       0.04687500 </v>
   <v>       0.09375000 </v>
  </varray>
 </kpoints>
 <parameters>
  <separator name="general" >
   <i type="string" name="SYSTEM">unknown system</i>
   <i type="logical" name="LCOMPAT"> F  </i>
  </separator>
  <separator name="electronic" >
   <i type="string" name="PREC">normal</i>
   <i name="ENMAX">    245.34500000</i>
   <i name="ENAUG">    412.95200000</i>
   <i name="EDIFF">      0.00010000</i>
   <i type="int" name="IALGO">    90</i>
   <i type="int" name="IWAVPR">    10</i>
   <i type="int" name="NBANDS">    64</i>
   <i name="NELECT">      8.00000000</i>
   <i type="int" name="TURBO">     0</i>
   <i type="int" name="IRESTART">     0</i>
   <i type="int" name="NREBOOT">     0</i>
   <i type="int" name="NMIN">     0</i>
   <i name="EREF">      0.00000000</i>
   <separator name="electronic smearing" >
    <i type="int" name="ISMEAR">     0</i>
    <i name="SIGMA">      0.05000000</i>
    <i name="KSPACING">      0.50000000</i>
    <i type="logical" name="KGAMMA"> T  </i>
   </separator>
   <separator name="electronic projectors" >
    <i type="logical" name="LREAL"> F  </i>
    <v name="ROPT">      0.00000000</v>
    <i type="int" name="LMAXPAW">  -100</i>
    <i type="int" name="LMAXMIX">     2</i>
    <i type="logical" name="NLSPLINE"> F  </i>
   </separator>
   <separator name="electronic startup" >
    <i type="int" name="ISTART">     1</i>
    <i type="int" name="ICHARG">     0</i>
    <i type="int" name="INIWAV">     1</i>
   </separator>
   <separator name="electronic spin" >
    <i type="int" name="ISPIN">     1</i>
    <i type="logical" name="LNONCOLLINEAR"> F  </i>
    <v name="MAGMOM">      1.00000000      1.00000000</v>
    <i name="NUPDOWN">     -1.00000000</i>
    <i type="logical" name="LSORBIT"> F  </i>
    <v name="SAXIS">      0.00000000      0.00000000      1.00000000</v>
    <i type="logical" name="LSPIRAL"> F  </i>
    <v name="QSPIRAL">      0.00000000      0.00000000      0.00000000</v>
    <i type="logical" name="LZEROZ"> F  </i>
   </separator>
   <separator name="electronic exchange-correlation" >
    <i type="logical" name="LASPH"> F  </i>
    <i type="logical" name="LMETAGGA"> F  </i>
   </separator>
   <separator name="electronic convergence" >
    <i type="int" name="NELM">    60</i>
    <i type="int" name="NELMDL">     0</i>
    <i type="int" name="NELMIN">     2</i>
    <i name="ENINI">    245.34500000</i>
    <separator name="electronic convergence detail" >
     <i type="logical" name="LDIAG"> T  </i>
     <i type="logical" name="LSUBROT"> T  </i>
     <i name="WEIMIN">      0.00000000</i>
     <i name="EBREAK">      0.00000039</i>
     <i name="DEPER">      0.30000000</i>
     <i type="int" name="NRMM">    40</i>
     <i name="TIME">      0.40000000</i>
    </separator>
   </separator>
   <separator name="electronic mixer" >
    <i name="AMIX">      0.40000000</i>
    <i name="BMIX">      1.00000000</i>
    <i name="AMIN">      0.10000000</i>
    <i name="AMIX_MAG">      1.60000000</i>
    <i name="BMIX_MAG">      1.00000000</i>
    <separator name="electronic mixer details" >
     <i type="int" name="IMIX">     4</i>
     <i type="int" name="MAXMIX">   -45</i>
     <i name="WC">    100.00000000</i>
     <i type="int" name="INIMIX">     1</i>
     <i type="int" name="MIXPRE">     1</i>
     <i type="int" name="MREMOVE">     5</i>
    </separator>
   </separator>
   <separator name="electronic dipolcorrection" >
    <i type="logical" name="LDIPOL"> F  </i>
    <i type="logical" name="LMONO"> F  </i>
    <i type="int" name="IDIPOL">     0</i>
    <i name="EPSILON">      1.00000000</i>
    <v name="DIPOL">   -100.00000000   -100.00000000   -100.00000000</v>
    <i name="EFIELD">      0.00000000</i>
   </separator>
  </separator>
  <separator name="grids" >
   <i type="int" name="NGX">    16</i>
   <i type="int" name="NGY">    16</i>
   <i type="int" name="NGZ">    16</i>
   <i type="int" name="NGXF">    32</i>
   <i type="int" name="NGYF">    32</i>
   <i type="int" name="NGZF">    32</i>
   <i type="logical" name="ADDGRID"> F  </i>
  </separator>
  <separator name="ionic" >
   <i type="int" name="NSW">     0</i>
   <i type="int" name="IBRION">    -1</i>
   <i type="int" name="ISIF">     2</i>
   <i name="PSTRESS">      0.00000000</i>
   <i name="EDIFFG">      0.00100000</i>
   <i type="int" name="NFREE">     0</i>
   <i name="POTIM">      0.50000000</i>
   <i name="SMASS">     -3.00000000</i>
   <i name="SCALEE">      1.00000000</i>
  </separator>
  <separator name="ionic md" >
   <i name="TEBEG">      0.00010000</i>
   <i name="TEEND">      0.00010000</i>
   <i type="int" name="NBLOCK">     1</i>
   <i type="int" name="KBLOCK">     1</i>
   <i type="int" name="NPACO">   256</i>
   <i name="APACO">     16.00000000</i>
  </separator>
  <separator name="symmetry" >
   <i type="int" name="ISYM">     2</i>
   <i name="SYMPREC">      0.00001000</i>
  </separator>
  <separator name="dos" >
   <i type="logical" name="LORBIT"> F  </i>
   <v name="RWIGS">     -1.00000000</v>
   <i type="int" name="NEDOS">  2000</i>
   <i name="EMIN">     10.00000000</i>
   <i name="EMAX">    -10.00000000</i>
   <i name="EFERMI">      0.00000000</i>
  </separator>
  <separator name="writing" >
   <i type="int" name="NWRITE">     2</i>
   <i type="logical" name="LWAVE"> T  </i>
   <i type="logical" name="LCHARG"> T  </i>
   <i type="logical" name="LPARD"> F  </i>
   <i type="logical" name="LVTOT"> F  </i>
   <i type="logical" name="LVHAR"> F  </i>
   <i type="logical" name="LELF"> F  </i>
   <i type="logical" name="LOPTICS"> T  </i>
   <v name="STM">      0.00000000      0.00000000      0.00000000      0.00000000      0.00000000      0.00000000      0.00000000</v>
  </separator>
  <separator name="performance" >
   <i type="int" name="NPAR">     8</i>
   <i type="int" name="NSIM">     2</i>
   <i type="int" name="NBLK">    -1</i>
   <i type="logical" name="LPLANE"> T  </i>
   <i type="logical" name="LSCALAPACK"> T  </i>
   <i type="logical" name="LSCAAWARE"> T  </i>
   <i type="logical" name="LSCALU"> F  </i>
   <i type="logical" name="LASYNC"> F  </i>
   <i type="logical" name="LORBITALREAL"> F  </i>
  </separator>
  <separator name="miscellaneous" >
   <i type="int" name="IDIOT">     3</i>
   <i type="logical" name="LMUSIC"> F  </i>
   <v name="POMASS">     28.08500000</v>
   <v name="DARWINR">      0.00000000</v>
   <v name="DARWINV">      1.00000000</v>
   <i type="logical" name="LCORR"> T  </i>
  </separator>
  <i type="logical" name="GGA_COMPAT"> T  </i>
  <i type="logical" name="LBERRY"> F  </i>
  <i type="int" name="ICORELEVEL">     0</i>
  <i type="logical" name="LDAU"> F  </i>
  <i type="int" name="I_CONSTRAINED_M">     0</i>
  <separator name="electronic exchange-correlation" >
   <i type="string" name="GGA">PE</i>
   <i type="int" name="VOSKOWN">     0</i>
   <i type="logical" name="LHFCALC"> F  </i>
   <i type="string" name="PRECFOCK"></i>
   <i type="logical" name="LSYMGRAD"> F  </i>
   <i type="logical" name="LHFONE"> F  </i>
   <i type="logical" name="LRHFCALC"> F  </i>
   <i type="logical" name="LTHOMAS"> F  </i>
   <i type="logical" name="LMODELHF"> F  </i>
   <i name="ENCUT4O">     -1.00000000</i>
   <i type="int" name="EXXOEP">     0</i>
   <i type="int" name="FOURORBIT">     0</i>
   <i name="AEXX">      0.00000000</i>
   <i name="HFALPHA">      0.00000000</i>
   <i name="MCALPHA">      0.00000000</i>
   <i name="ALDAX">      1.00000000</i>
   <i name="AGGAX">      1.00000000</i>
   <i name="ALDAC">      1.00000000</i>
   <i name="AGGAC">      1.00000000</i>
   <i type="int" name="NKREDX">     1</i>
   <i type="int" name="NKREDY">     1</i>
   <i type="int" name="NKREDZ">     1</i>
   <i type="logical" name="SHIFTRED"> F  </i>
   <i type="logical" name="ODDONLY"> F  </i>
   <i type="logical" name="EVENONLY"> F  </i>
   <i type="int" name="LMAXFOCK">     0</i>
   <i type="int" name="NMAXFOCKAE">     0</i>
   <i type="logical" name="LFOCKAEDFT"> F  </i>
   <i name="HFSCREEN">      0.00000000</i>
   <i name="HFSCREENC">      0.00000000</i>
   <i type="int" name="NBANDSGWLOW">     0</i>
  </separator>
  <separator name="vdW DFT" >
   <i type="logical" name="LUSE_VDW"> F  </i>
   <i name="Zab_VDW">     -0.84910000</i>
   <i name="PARAM1">      0.12340000</i>
   <i name="PARAM2">      1.00000000</i>
   <i name="PARAM3">      0.00000000</i>
  </separator>
  <separator name="model GW" >
   <i type="int" name="MODEL_GW">     0</i>
   <i name="MODEL_EPS0">     12.00772552</i>
   <i name="MODEL_ALPHA">      1.00000000</i>
  </separator>
  <separator name="linear response parameters" >
   <i type="logical" name="LEPSILON"> F  </i>
   <i type="logical" name="LRPA"> F  </i>
   <i type="logical" name="LNABLA"> F  </i>
   <i type="logical" name="LVEL"> F  </i>
   <i type="int" name="KINTER">     0</i>
   <i name="CSHIFT">      0.10000000</i>
   <i name="OMEGAMAX">     -1.00000000</i>
   <i name="DEG_THRESHOLD">      0.00200000</i>
  </separator>
  <separator name="orbital magnetization" >
   <i type="logical" name="NUCIND"> F  </i>
   <v name="MAGPOS">      0.00000000      0.00000000      0.00000000</v>
   <i type="logical" name="LNICSALL"> T  </i>
   <i type="logical" name="ORBITALMAG"> F  </i>
   <i type="logical" name="LMAGBLOCH"> F  </i>
   <i type="logical" name="LCHIMAG"> F  </i>
   <i type="logical" name="LGAUGE"> T  </i>
   <i type="int" name="MAGATOM">     0</i>
   <v name="MAGDIPOL">      0.00000000      0.00000000      0.00000000</v>
   <v name="AVECCONST">      0.00000000      0.00000000      0.00000000</v>
  </separator>
  <separator name="response functions" >
   <i type="logical" name="LADDER"> F  </i>
   <i type="logical" name="LFXC"> F  </i>
   <i type="logical" name="LHARTREE"> T  </i>
   <i type="int" name="IBSE">     0</i>
   <i type="logical" name="LTCTE"> F  </i>
   <i type="logical" name="LTETE"> F  </i>
   <i type="logical" name="LTRIPLET"> F  </i>
   <i type="logical" name="LFXCEPS"> F  </i>
   <i type="logical" name="L2ORDER"> F  </i>
   <i type="logical" name="LUSEW"> F  </i>
   <i name="ENCUTGW">     -2.00000000</i>
   <i name="ENCUTGWSOFT">     -2.00000000</i>
   <i name="ENCUTLF">     -1.00000000</i>
   <i type="int" name="LMAXMP2">    -1</i>
   <i name="SCISSOR">      0.00000000</i>
   <i type="int" name="NOMEGA">     0</i>
   <i type="int" name="NOMEGAR">     0</i>
   <i type="int" name="NBANDSGW">    -1</i>
   <i type="int" name="NBANDSO">    -1</i>
   <i type="int" name="NBANDSV">    -1</i>
   <i type="int" name="NELM">     1</i>
   <i type="int" name="DIM">     3</i>
   <i type="int" name="ANTIRES">     0</i>
   <i name="OMEGAMAX">    -30.00000000</i>
   <i name="OMEGATL">   -200.00000000</i>
   <i type="int" name="OMEGAGRID">     0</i>
   <i name="CSHIFT">     -0.10000000</i>
   <i type="logical" name="SELFENERGY"> F  </i>
   <i type="logical" name="LSPECTRAL"> F  </i>
   <i type="logical" name="ODDONLYGW"> F  </i>
   <i type="logical" name="EVENONLYGW"> F  </i>
   <i type="int" name="NKREDLFX">     1</i>
   <i type="int" name="NKREDLFY">     1</i>
   <i type="int" name="NKREDLFZ">     1</i>
   <i type="int" name="MAXMEM">  1800</i>
   <i type="int" name="TELESCOPE">     0</i>
  </separator>
 </parameters>
 <atominfo>
  <atoms>       2 </atoms>
  <types>       1 </types>
  <array name="atoms" >
   <dimension dim="1">ion</dimension>
   <field type="string">element</field>
   <field type="int">atomtype</field>
   <set>
    <rc><c>Si</c><c>   1</c></rc>
    <rc><c>Si</c><c>   1</c></rc>
   </set>
  </array>
  <array name="atomtypes" >
   <dimension dim="1">type</dimension>
   <field type="int">atomspertype</field>
   <field type="string">element</field>
   <field>mass</field>
   <field>valence</field>
   <field type="string">pseudopotential</field>
   <set>
    <rc><c>   2</c><c>Si</c><c>     28.08500000</c><c>      4.00000000</c><c>  PAW Si_GW 04May2012                   </c></rc>
   </set>
  </array>
 </atominfo>
 <structure name="initialpos" >
  <crystal>
   <varray name="basis" >
    <v>       2.71500000       2.71500000       0.00000000 </v>
    <v>       0.00000000       2.71500000       2.71500000 </v>
    <v>       2.71500000       0.00000000       2.71500000 </v>
   </varray>
   <i name="volume">     40.02575175 </i>
   <varray name="rec_basis" >
    <v>       0.18416206       0.18416206      -0.18416206 </v>
    <v>      -0.18416206       0.18416206       0.18416206 </v>
    <v>       0.18416206      -0.18416206       0.18416206 </v>
   </varray>
  </crystal>
  <varray name="positions" >
   <v>       0.00000000       0.00000000       0.00000000 </v>
   <v>       0.25000000       0.25000000       0.25000000 </v>
  </varray>
 </structure>
 <calculation>
  <scstep>
   <time name="diag">    0.72    0.73</time>
   <time name="total">    0.73    0.74</time>
   <energy>
    <i name="alphaZ">      6.08881246 </i>
    <i name="ewald">   -228.56352493 </i>
    <i name="hartreedc">    -15.24536435 </i>
    <i name="XCdc">    -18.17060455 </i>
    <i name="pawpsdc">    266.50547189 </i>
    <i name="pawaedc">   -231.08144546 </i>
    <i name="eentropy">     -0.00000000 </i>
    <i name="bandstr">      3.70510409 </i>
    <i name="atom">    206.12257231 </i>
    <i name="e_fr_energy">    -10.63897853 </i>
    <i name="e_wo_entrp">    -10.63897853 </i>
    <i name="e_0_energy">    -10.63897853 </i>
   </energy>
  </scstep>
  <scstep>
   <time name="diag">    0.70    0.71</time>
   <time name="total">    0.71    0.71</time>
   <energy>
    <i name="alphaZ">      6.08881246 </i>
    <i name="ewald">   -228.56352493 </i>
    <i name="hartreedc">    -15.24516973 </i>
    <i name="XCdc">    -18.17062254 </i>
    <i name="pawpsdc">    266.50373085 </i>
    <i name="pawaedc">   -231.07969814 </i>
    <i name="eentropy">     -0.00000000 </i>
    <i name="bandstr">      3.70492119 </i>
    <i name="atom">    206.12257231 </i>
    <i name="e_fr_energy">    -10.63897852 </i>
    <i name="e_wo_entrp">    -10.63897852 </i>
    <i name="e_0_energy">    -10.63897852 </i>
   </energy>
  </scstep>
  <structure>
   <crystal>
    <varray name="basis" >
     <v>       2.71500000       2.71500000       0.00000000 </v>
     <v>       0.00000000       2.71500000       2.71500000 </v>
     <v>       2.71500000       0.00000000       2.71500000 </v>
    </varray>
    <i name="volume">     40.02575175 </i>
    <varray name="rec_basis" >
     <v>       0.18416206       0.18416206      -0.18416206 </v>
     <v>      -0.18416206       0.18416206       0.18416206 </v>
     <v>       0.18416206      -0.18416206       0.18416206 </v>
    </varray>
   </crystal>
   <varray name="positions" >
    <v>       0.00000000       0.00000000       0.00000000 </v>
    <v>       0.25000000       0.25000000       0.25000000 </v>
   </varray>
  </structure>
  <varray name="forces" >
   <v>      -0.00000000       0.00000000       0.00000000 </v>
   <v>       0.00000000      -0.00000000      -0.00000000 </v>
  </varray>
  <varray name="stress" >
   <v>      24.84909918       0.00000000       0.00000000 </v>
   <v>       0.00000000      24.84909918      -0.00000000 </v>
   <v>       0.00000000       0.00000000      24.84909918 </v>
  </varray>
  <energy>
   <i name="e_fr_energy">    -10.63897852 </i>
   <i name="e_wo_entrp">    -10.63897852 </i>
   <i name="e_0_energy">     -0.00000000 </i>
  </energy>
  <time name="totalsc">    1.54    1.58</time>
  <eigenvalues>
   <array>
    <dimension dim="1">band</dimension>
    <dimension dim="2">kpoint</dimension>
    <dimension dim="3">spin</dimension>
    <field>eigene</field>
    <field>occ</field>
    <set>
     <set comment="spin 1">
      <set comment="kpoint 1">
       <r>   -6.4597    1.0000 </r>
       <r>    5.5160    1.0000 </r>
       <r>    5.5160    1.0000 </r>
       <r>    5.5160    1.0000 </r>
       <r>    8.0654    0.0000 </r>
       <r>    8.0654    0.0000 </r>
       <r>    8.0654    0.0000 </r>
       <r>    8.8796    0.0000 </r>
       <r>   13.2753    0.0000 </r>
       <r>   13.2753    0.0000 </r>
       <r>   13.4677    0.0000 </r>
       <r>   16.7658    0.0000 </r>
       <r>   16.7658    0.0000 </r>
       <r>   16.7658    0.0000 </r>
       <r>   20.9203    0.0000 </r>
       <r>   28.8475    0.0000 </r>
       <r>   28.8475    0.0000 </r>
       <r>   28.8475    0.0000 </r>
       <r>   30.0170    0.0000 </r>
       <r>   30.0170    0.0000 </r>
       <r>   31.4160    0.0000 </r>
       <r>   31.4161    0.0000 </r>
       <r>   31.4161    0.0000 </r>
       <r>   34.7709    0.0000 </r>
       <r>   34.7709    0.0000 </r>
       <r>   34.7710    0.0000 </r>
       <r>   40.8281    0.0000 </r>
       <r>   40.8283    0.0000 </r>
       <r>   40.8283    0.0000 </r>
       <r>   43.9206    0.0000 </r>
       <r>   44.6777    0.0000 </r>
       <r>   44.6777    0.0000 </r>
       <r>   46.3400    0.0000 </r>
       <r>   46.3400    0.0000 </r>
       <r>   47.8852    0.0000 </r>
       <r>   47.8853    0.0000 </r>
       <r>   47.8853    0.0000 </r>
       <r>   49.5572    0.0000 </r>
       <r>   49.5573    0.0000 </r>
       <r>   49.5573    0.0000 </r>
       <r>   50.1907    0.0000 </r>
       <r>   50.5631    0.0000 </r>
       <r>   50.5631    0.0000 </r>
       <r>   50.5632    0.0000 </r>
       <r>   50.6153    0.0000 </r>
       <r>   50.6153    0.0000 </r>
       <r>   50.6153    0.0000 </r>
       <r>   51.9499    0.0000 </r>
       <r>   51.9499    0.0000 </r>
       <r>   51.9500    0.0000 </r>
       <r>   56.0049    0.0000 </r>
       <r>   57.1881    0.0000 </r>
       <r>   57.1881    0.0000 </r>
       <r>   57.1881    0.0000 </r>
       <r>   57.4021    0.0000 </r>
       <r>   57.4021    0.0000 </r>
       <r>   57.4021    0.0000 </r>
       <r>   62.5906    0.0000 </r>
       <r>   63.5972    0.0000 </r>
       <r>   72.3896    0.0000 </r>
       <r>   72.3896    0.0000 </r>
       <r>   75.4190    0.0000 </r>
       <r>   75.4192    0.0000 </r>
       <r>   75.4192    0.0000 </r>
      </set>
      <set comment="kpoint 2">
       <r>   -5.6596    1.0000 </r>
       <r>    1.5774    1.0000 </r>
       <r>    4.7503    1.0000 </r>
       <r>    4.7503    1.0000 </r>
       <r>    7.5397    0.0000 </r>
       <r>    9.0132    0.0000 </r>
       <r>    9.0132    0.0000 </r>
       <r>   12.4393    0.0000 </r>
       <r>   12.7292    0.0000 </r>
       <r>   12.7292    0.0000 </r>
       <r>   14.5056    0.0000 </r>
       <r>   17.3688    0.0000 </r>
       <r>   20.2143    0.0000 </r>
       <r>   20.2143    0.0000 </r>
       <r>   23.4438    0.0000 </r>
       <r>   23.4439    0.0000 </r>
       <r>   23.6142    0.0000 </r>
       <r>   25.6126    0.0000 </r>
       <r>   29.8181    0.0000 </r>
       <r>   29.8183    0.0000 </r>
       <r>   32.3141    0.0000 </r>
       <r>   32.3142    0.0000 </r>
       <r>   33.6658    0.0000 </r>
       <r>   35.1954    0.0000 </r>
       <r>   35.4785    0.0000 </r>
       <r>   37.4568    0.0000 </r>
       <r>   37.4570    0.0000 </r>
       <r>   39.2852    0.0000 </r>
       <r>   39.2852    0.0000 </r>
       <r>   40.1826    0.0000 </r>
       <r>   40.1827    0.0000 </r>
       <r>   43.8457    0.0000 </r>
       <r>   43.8458    0.0000 </r>
       <r>   43.9307    0.0000 </r>
       <r>   44.4877    0.0000 </r>
       <r>   44.9128    0.0000 </r>
       <r>   46.9307    0.0000 </r>
       <r>   46.9308    0.0000 </r>
       <r>   49.1354    0.0000 </r>
       <r>   49.5153    0.0000 </r>
       <r>   49.5154    0.0000 </r>
       <r>   49.9552    0.0000 </r>
       <r>   50.3003    0.0000 </r>
       <r>   52.8259    0.0000 </r>
       <r>   52.8264    0.0000 </r>
       <r>   55.2757    0.0000 </r>
       <r>   55.2758    0.0000 </r>
       <r>   56.5268    0.0000 </r>
       <r>   56.5787    0.0000 </r>
       <r>   56.5788    0.0000 </r>
       <r>   58.4165    0.0000 </r>
       <r>   59.7195    0.0000 </r>
       <r>   62.7469    0.0000 </r>
       <r>   62.7471    0.0000 </r>
       <r>   63.3106    0.0000 </r>
       <r>   63.3106    0.0000 </r>
       <r>   63.5757    0.0000 </r>
       <r>   65.6616    0.0000 </r>
       <r>   65.6617    0.0000 </r>
       <r>   66.5091    0.0000 </r>
       <r>   67.5191    0.0000 </r>
       <r>   68.5253    0.0000 </r>
       <r>   68.5257    0.0000 </r>
       <r>   72.1677    0.0000 </r>
      </set>
      <set comment="kpoint 3">
       <r>   -4.1250    1.0000 </r>
       <r>   -1.4706    1.0000 </r>
       <r>    4.3101    1.0000 </r>
       <r>    4.3101    1.0000 </r>
       <r>    7.0483    0.0000 </r>
       <r>    8.8471    0.0000 </r>
       <r>    8.8471    0.0000 </r>
       <r>   13.2342    0.0000 </r>
       <r>   16.1505    0.0000 </r>
       <r>   16.1506    0.0000 </r>
       <r>   16.8775    0.0000 </r>
       <r>   16.8775    0.0000 </r>
       <r>   16.8919    0.0000 </r>
       <r>   18.5329    0.0000 </r>
       <r>   25.0425    0.0000 </r>
       <r>   25.5329    0.0000 </r>
       <r>   27.2663    0.0000 </r>
       <r>   27.2664    0.0000 </r>
       <r>   27.4889    0.0000 </r>
       <r>   27.4890    0.0000 </r>
       <r>   31.3485    0.0000 </r>
       <r>   32.0867    0.0000 </r>
       <r>   32.0869    0.0000 </r>
       <r>   33.1602    0.0000 </r>
       <r>   33.1603    0.0000 </r>
       <r>   33.8592    0.0000 </r>
       <r>   36.5628    0.0000 </r>
       <r>   38.1065    0.0000 </r>
       <r>   38.1066    0.0000 </r>
       <r>   38.5838    0.0000 </r>
       <r>   38.5840    0.0000 </r>
       <r>   39.6243    0.0000 </r>
       <r>   41.9672    0.0000 </r>
       <r>   42.3328    0.0000 </r>
       <r>   46.5245    0.0000 </r>
       <r>   46.5246    0.0000 </r>
       <r>   48.3154    0.0000 </r>
       <r>   48.3154    0.0000 </r>
       <r>   48.4419    0.0000 </r>
       <r>   49.5629    0.0000 </r>
       <r>   52.5308    0.0000 </r>
       <r>   52.5314    0.0000 </r>
       <r>   54.2628    0.0000 </r>
       <r>   54.2631    0.0000 </r>
       <r>   55.0548    0.0000 </r>
       <r>   58.3578    0.0000 </r>
       <r>   58.3860    0.0000 </r>
       <r>   58.3861    0.0000 </r>
       <r>   59.7325    0.0000 </r>
       <r>   59.7326    0.0000 </r>
       <r>   59.9156    0.0000 </r>
       <r>   61.6773    0.0000 </r>
       <r>   61.6775    0.0000 </r>
       <r>   64.4486    0.0000 </r>
       <r>   64.4487    0.0000 </r>
       <r>   65.0677    0.0000 </r>
       <r>   65.5764    0.0000 </r>
       <r>   65.5768    0.0000 </r>
       <r>   67.3156    0.0000 </r>
       <r>   68.3242    0.0000 </r>
       <r>   68.3243    0.0000 </r>
       <r>   68.9545    0.0000 </r>
       <r>   69.7741    0.0000 </r>
       <r>   70.3413    0.0000 </r>
      </set>
      <set comment="kpoint 4">
       <r>   -5.3771    1.0000 </r>
       <r>    1.9933    1.0000 </r>
       <r>    3.6146    1.0000 </r>
       <r>    3.6146    1.0000 </r>
       <r>    6.6326    0.0000 </r>
       <r>    8.6416    0.0000 </r>
       <r>   11.2800    0.0000 </r>
       <r>   11.2800    0.0000 </r>
       <r>   13.5928    0.0000 </r>
       <r>   14.4878    0.0000 </r>
       <r>   16.9508    0.0000 </r>
       <r>   18.5635    0.0000 </r>
       <r>   18.5635    0.0000 </r>
       <r>   19.2812    0.0000 </r>
       <r>   22.9971    0.0000 </r>
       <r>   22.9971    0.0000 </r>
       <r>   23.9810    0.0000 </r>
       <r>   25.9760    0.0000 </r>
       <r>   26.5892    0.0000 </r>
       <r>   30.6222    0.0000 </r>
       <r>   32.0991    0.0000 </r>
       <r>   33.0107    0.0000 </r>
       <r>   33.0108    0.0000 </r>
       <r>   35.1086    0.0000 </r>
       <r>   35.1086    0.0000 </r>
       <r>   35.4387    0.0000 </r>
       <r>   36.0027    0.0000 </r>
       <r>   40.5396    0.0000 </r>
       <r>   40.7773    0.0000 </r>
       <r>   41.1423    0.0000 </r>
       <r>   41.1424    0.0000 </r>
       <r>   42.9225    0.0000 </r>
       <r>   42.9959    0.0000 </r>
       <r>   42.9959    0.0000 </r>
       <r>   46.3677    0.0000 </r>
       <r>   46.3677    0.0000 </r>
       <r>   46.5430    0.0000 </r>
       <r>   46.8832    0.0000 </r>
       <r>   47.1235    0.0000 </r>
       <r>   49.6219    0.0000 </r>
       <r>   49.6220    0.0000 </r>
       <r>   49.7815    0.0000 </r>
       <r>   51.9951    0.0000 </r>
       <r>   53.1582    0.0000 </r>
       <r>   53.1583    0.0000 </r>
       <r>   54.6453    0.0000 </r>
       <r>   54.8073    0.0000 </r>
       <r>   56.4794    0.0000 </r>
       <r>   56.6307    0.0000 </r>
       <r>   56.6307    0.0000 </r>
       <r>   57.5917    0.0000 </r>
       <r>   58.8118    0.0000 </r>
       <r>   61.7841    0.0000 </r>
       <r>   63.0027    0.0000 </r>
       <r>   63.0028    0.0000 </r>
       <r>   65.6121    0.0000 </r>
       <r>   68.0958    0.0000 </r>
       <r>   68.0959    0.0000 </r>
       <r>   68.4585    0.0000 </r>
       <r>   68.8514    0.0000 </r>
       <r>   68.9712    0.0000 </r>
       <r>   68.9713    0.0000 </r>
       <r>   69.6045    0.0000 </r>
       <r>   72.3348    0.0000 </r>
      </set>
      <set comment="kpoint 5">
       <r>   -3.7393    1.0000 </r>
       <r>   -0.8785    1.0000 </r>
       <r>    1.9658    1.0000 </r>
       <r>    3.2987    1.0000 </r>
       <r>    7.0254    0.0000 </r>
       <r>    9.9651    0.0000 </r>
       <r>   11.2668    0.0000 </r>
       <r>   11.4386    0.0000 </r>
       <r>   15.7496    0.0000 </r>
       <r>   16.1061    0.0000 </r>
       <r>   17.7340    0.0000 </r>
       <r>   18.2530    0.0000 </r>
       <r>   18.5630    0.0000 </r>
       <r>   22.4312    0.0000 </r>
       <r>   23.3457    0.0000 </r>
       <r>   24.2490    0.0000 </r>
       <r>   24.9371    0.0000 </r>
       <r>   25.2210    0.0000 </r>
       <r>   25.5485    0.0000 </r>
       <r>   28.4916    0.0000 </r>
       <r>   29.4649    0.0000 </r>
       <r>   30.8102    0.0000 </r>
       <r>   31.2179    0.0000 </r>
       <r>   33.4207    0.0000 </r>
       <r>   34.7281    0.0000 </r>
       <r>   34.9928    0.0000 </r>
       <r>   34.9957    0.0000 </r>
       <r>   36.7981    0.0000 </r>
       <r>   37.7927    0.0000 </r>
       <r>   39.9926    0.0000 </r>
       <r>   41.1372    0.0000 </r>
       <r>   41.8382    0.0000 </r>
       <r>   42.8236    0.0000 </r>
       <r>   42.9767    0.0000 </r>
       <r>   44.2843    0.0000 </r>
       <r>   46.6240    0.0000 </r>
       <r>   49.0009    0.0000 </r>
       <r>   49.7105    0.0000 </r>
       <r>   50.3476    0.0000 </r>
       <r>   50.8329    0.0000 </r>
       <r>   50.8496    0.0000 </r>
       <r>   51.8171    0.0000 </r>
       <r>   52.1865    0.0000 </r>
       <r>   54.1383    0.0000 </r>
       <r>   54.7227    0.0000 </r>
       <r>   56.0407    0.0000 </r>
       <r>   56.8996    0.0000 </r>
       <r>   57.4308    0.0000 </r>
       <r>   58.9659    0.0000 </r>
       <r>   60.7039    0.0000 </r>
       <r>   61.0827    0.0000 </r>
       <r>   61.5532    0.0000 </r>
       <r>   62.2252    0.0000 </r>
       <r>   64.1019    0.0000 </r>
       <r>   64.8585    0.0000 </r>
       <r>   66.2788    0.0000 </r>
       <r>   66.3451    0.0000 </r>
       <r>   67.0238    0.0000 </r>
       <r>   67.2542    0.0000 </r>
       <r>   68.6459    0.0000 </r>
       <r>   68.9503    0.0000 </r>
       <r>   69.4643    0.0000 </r>
       <r>   69.9681    0.0000 </r>
       <r>   71.7950    0.0000 </r>
      </set>
      <set comment="kpoint 6">
       <r>   -4.4143    1.0000 </r>
       <r>    0.0258    1.0000 </r>
       <r>    1.7458    1.0000 </r>
       <r>    4.1794    1.0000 </r>
       <r>    7.9574    0.0000 </r>
       <r>   10.2973    0.0000 </r>
       <r>   10.6667    0.0000 </r>
       <r>   11.6601    0.0000 </r>
       <r>   11.9840    0.0000 </r>
       <r>   15.1701    0.0000 </r>
       <r>   18.1680    0.0000 </r>
       <r>   18.7720    0.0000 </r>
       <r>   18.9895    0.0000 </r>
       <r>   22.2320    0.0000 </r>
       <r>   22.7295    0.0000 </r>
       <r>   23.0641    0.0000 </r>
       <r>   24.3099    0.0000 </r>
       <r>   26.9360    0.0000 </r>
       <r>   27.2745    0.0000 </r>
       <r>   29.6192    0.0000 </r>
       <r>   30.3560    0.0000 </r>
       <r>   30.9456    0.0000 </r>
       <r>   32.4459    0.0000 </r>
       <r>   32.6706    0.0000 </r>
       <r>   33.5159    0.0000 </r>
       <r>   34.8968    0.0000 </r>
       <r>   36.0594    0.0000 </r>
       <r>   36.8280    0.0000 </r>
       <r>   39.9660    0.0000 </r>
       <r>   40.0451    0.0000 </r>
       <r>   41.7391    0.0000 </r>
       <r>   42.7638    0.0000 </r>
       <r>   43.0584    0.0000 </r>
       <r>   43.6030    0.0000 </r>
       <r>   44.0711    0.0000 </r>
       <r>   44.1763    0.0000 </r>
       <r>   44.2890    0.0000 </r>
       <r>   48.1596    0.0000 </r>
       <r>   49.5767    0.0000 </r>
       <r>   51.0179    0.0000 </r>
       <r>   52.0663    0.0000 </r>
       <r>   52.1551    0.0000 </r>
       <r>   54.6960    0.0000 </r>
       <r>   54.8494    0.0000 </r>
       <r>   56.1230    0.0000 </r>
       <r>   56.2293    0.0000 </r>
       <r>   56.2883    0.0000 </r>
       <r>   57.6687    0.0000 </r>
       <r>   58.3641    0.0000 </r>
       <r>   59.6318    0.0000 </r>
       <r>   60.2150    0.0000 </r>
       <r>   61.7399    0.0000 </r>
       <r>   62.4030    0.0000 </r>
       <r>   62.7933    0.0000 </r>
       <r>   63.3168    0.0000 </r>
       <r>   63.6786    0.0000 </r>
       <r>   65.9430    0.0000 </r>
       <r>   66.6877    0.0000 </r>
       <r>   66.8049    0.0000 </r>
       <r>   66.9172    0.0000 </r>
       <r>   68.1446    0.0000 </r>
       <r>   69.9986    0.0000 </r>
       <r>   70.6649    0.0000 </r>
       <r>   71.3771    0.0000 </r>
      </set>
      <set comment="kpoint 7">
       <r>   -2.3123    1.0000 </r>
       <r>   -2.3123    1.0000 </r>
       <r>    2.6495    1.0000 </r>
       <r>    2.6495    1.0000 </r>
       <r>    6.2138    0.0000 </r>
       <r>    6.2138    0.0000 </r>
       <r>   15.6299    0.0000 </r>
       <r>   15.6299    0.0000 </r>
       <r>   16.5874    0.0000 </r>
       <r>   16.5875    0.0000 </r>
       <r>   18.1154    0.0000 </r>
       <r>   18.1154    0.0000 </r>
       <r>   18.5816    0.0000 </r>
       <r>   18.5816    0.0000 </r>
       <r>   24.4941    0.0000 </r>
       <r>   24.4941    0.0000 </r>
       <r>   25.2930    0.0000 </r>
       <r>   25.2930    0.0000 </r>
       <r>   25.7540    0.0000 </r>
       <r>   25.7540    0.0000 </r>
       <r>   27.0548    0.0000 </r>
       <r>   27.0549    0.0000 </r>
       <r>   31.3504    0.0000 </r>
       <r>   31.3506    0.0000 </r>
       <r>   35.1100    0.0000 </r>
       <r>   35.1100    0.0000 </r>
       <r>   39.7898    0.0000 </r>
       <r>   39.7898    0.0000 </r>
       <r>   39.9650    0.0000 </r>
       <r>   39.9651    0.0000 </r>
       <r>   41.6547    0.0000 </r>
       <r>   41.6548    0.0000 </r>
       <r>   43.8230    0.0000 </r>
       <r>   43.8230    0.0000 </r>
       <r>   45.1465    0.0000 </r>
       <r>   45.1465    0.0000 </r>
       <r>   46.4431    0.0000 </r>
       <r>   46.4431    0.0000 </r>
       <r>   47.4798    0.0000 </r>
       <r>   47.4799    0.0000 </r>
       <r>   50.7453    0.0000 </r>
       <r>   50.7453    0.0000 </r>
       <r>   54.8856    0.0000 </r>
       <r>   54.8856    0.0000 </r>
       <r>   56.1086    0.0000 </r>
       <r>   56.1086    0.0000 </r>
       <r>   59.6277    0.0000 </r>
       <r>   59.6281    0.0000 </r>
       <r>   62.1899    0.0000 </r>
       <r>   62.1900    0.0000 </r>
       <r>   62.8980    0.0000 </r>
       <r>   62.8981    0.0000 </r>
       <r>   63.0789    0.0000 </r>
       <r>   63.0789    0.0000 </r>
       <r>   63.5442    0.0000 </r>
       <r>   63.5442    0.0000 </r>
       <r>   65.7051    0.0000 </r>
       <r>   65.7051    0.0000 </r>
       <r>   66.7935    0.0000 </r>
       <r>   66.7935    0.0000 </r>
       <r>   67.1861    0.0000 </r>
       <r>   67.1861    0.0000 </r>
       <r>   69.9534    0.0000 </r>
       <r>   69.9541    0.0000 </r>
      </set>
      <set comment="kpoint 8">
       <r>   -2.1475    1.0000 </r>
       <r>   -2.1475    1.0000 </r>
       <r>    1.6446    1.0000 </r>
       <r>    1.6446    1.0000 </r>
       <r>    9.7889    0.0000 </r>
       <r>    9.7889    0.0000 </r>
       <r>   10.5126    0.0000 </r>
       <r>   10.5126    0.0000 </r>
       <r>   16.1341    0.0000 </r>
       <r>   16.1341    0.0000 </r>
       <r>   18.5849    0.0000 </r>
       <r>   18.5849    0.0000 </r>
       <r>   22.0167    0.0000 </r>
       <r>   22.0167    0.0000 </r>
       <r>   24.1102    0.0000 </r>
       <r>   24.1102    0.0000 </r>
       <r>   24.5582    0.0000 </r>
       <r>   24.5583    0.0000 </r>
       <r>   25.4897    0.0000 </r>
       <r>   25.4897    0.0000 </r>
       <r>   29.3033    0.0000 </r>
       <r>   29.3033    0.0000 </r>
       <r>   33.0646    0.0000 </r>
       <r>   33.0647    0.0000 </r>
       <r>   33.2059    0.0000 </r>
       <r>   33.2059    0.0000 </r>
       <r>   34.9820    0.0000 </r>
       <r>   34.9820    0.0000 </r>
       <r>   38.5408    0.0000 </r>
       <r>   38.5411    0.0000 </r>
       <r>   42.3902    0.0000 </r>
       <r>   42.3902    0.0000 </r>
       <r>   43.6482    0.0000 </r>
       <r>   43.6483    0.0000 </r>
       <r>   45.9496    0.0000 </r>
       <r>   45.9497    0.0000 </r>
       <r>   48.9947    0.0000 </r>
       <r>   48.9950    0.0000 </r>
       <r>   50.1914    0.0000 </r>
       <r>   50.1915    0.0000 </r>
       <r>   52.9914    0.0000 </r>
       <r>   52.9914    0.0000 </r>
       <r>   54.1605    0.0000 </r>
       <r>   54.1605    0.0000 </r>
       <r>   54.4383    0.0000 </r>
       <r>   54.4384    0.0000 </r>
       <r>   57.4451    0.0000 </r>
       <r>   57.4454    0.0000 </r>
       <r>   61.1986    0.0000 </r>
       <r>   61.1988    0.0000 </r>
       <r>   61.6570    0.0000 </r>
       <r>   61.6570    0.0000 </r>
       <r>   62.6614    0.0000 </r>
       <r>   62.6617    0.0000 </r>
       <r>   65.0963    0.0000 </r>
       <r>   65.0968    0.0000 </r>
       <r>   65.5252    0.0000 </r>
       <r>   65.5259    0.0000 </r>
       <r>   67.7943    0.0000 </r>
       <r>   67.7946    0.0000 </r>
       <r>   68.5829    0.0000 </r>
       <r>   68.5830    0.0000 </r>
       <r>   70.4990    0.0000 </r>
       <r>   70.4991    0.0000 </r>
      </set>
     </set>
    </set>
   </array>
  </eigenvalues>
  <separator name="orbital magnetization" >
   <v name="MAGDIPOLOUT">      0.00000000      0.00000000      0.00000000</v>
  </separator>
  <dielectricfunction>
   <imag>
    <array>
     <dimension dim="1">gridpoints</dimension>
     <field>energy</field>
     <field>xx</field>
     <field>yy</field>
     <field>zz</field>
     <field>xy</field>
     <field>yz</field>
     <field>zx</field>
     <set>
      <r>     0.0000     0.0000     0.0000     0.0000     0.0000     0.0000     0.0000 </r>
      <r>     0.0492     0.0219     0.0219     0.0219     0.0000     0.0000     0.0000 </r>
      <r>     0.0983     0.0439     0.0439     0.0439     0.0000     0.0000     0.0000 </r>
      <r>     0.1475     0.0660     0.0660     0.0660     0.0000     0.0000     0.0000 </r>
      <r>     0.1966     0.0883     0.0883     0.0883     0.0000     0.0000     0.0000 </r>
      <r>     0.2458     0.1110     0.1110     0.1110     0.0000     0.0000     0.0000 </r>
      <r>     0.2949     0.1339     0.1339     0.1339     0.0000     0.0000     0.0000 </r>
      <r>     0.3441     0.1574     0.1574     0.1574     0.0000     0.0000     0.0000 </r>
      <r>     0.3932     0.1813     0.1813     0.1813     0.0000     0.0000     0.0000 </r>
      <r>     0.4424     0.2059     0.2059     0.2059     0.0000     0.0000     0.0000 </r>
      <r>     0.4915     0.2311     0.2311     0.2311     0.0000     0.0000     0.0000 </r>
      <r>     0.5407     0.2572     0.2572     0.2572     0.0000     0.0000     0.0000 </r>
      <r>     0.5898     0.2841     0.2841     0.2841     0.0000     0.0000     0.0000 </r>
      <r>     0.6390     0.3121     0.3121     0.3121     0.0000     0.0000     0.0000 </r>
      <r>     0.6881     0.3413     0.3413     0.3413     0.0000     0.0000     0.0000 </r>
      <r>     0.7373     0.3717     0.3717     0.3717     0.0000     0.0000     0.0000 </r>
      <r>     0.7864     0.4036     0.4036     0.4036     0.0000     0.0000     0.0000 </r>
      <r>     0.8356     0.4372     0.4372     0.4372     0.0000     0.0000     0.0000 </r>
      <r>     0.8847     0.4725     0.4725     0.4725     0.0000     0.0000     0.0000 </r>
      <r>     0.9339     0.5099     0.5099     0.5099     0.0000     0.0000     0.0000 </r>
      <r>     0.9830     0.5496     0.5496     0.5496     0.0000     0.0000     0.0000 </r>
      <r>     1.0322     0.5918     0.5918     0.5918     0.0000     0.0000     0.0000 </r>
      <r>     1.0813     0.6368     0.6368     0.6368     0.0000     0.0000     0.0000 </r>
      <r>     1.1305     0.6851     0.6851     0.6851     0.0000     0.0000     0.0000 </r>
      <r>     1.1796     0.7370     0.7370     0.7370     0.0000     0.0000     0.0000 </r>
      <r>     1.2288     0.7930     0.7930     0.7930     0.0000     0.0000     0.0000 </r>
      <r>     1.2779     0.8537     0.8537     0.8537     0.0000     0.0000     0.0000 </r>
      <r>     1.3271     0.9196     0.9196     0.9196     0.0000     0.0000     0.0000 </r>
      <r>     1.3763     0.9916     0.9916     0.9916     0.0000     0.0000     0.0000 </r>
      <r>     1.4254     1.0705     1.0705     1.0705     0.0000     0.0000     0.0000 </r>
      <r>     1.4746     1.1574     1.1574     1.1574     0.0000     0.0000     0.0000 </r>
      <r>     1.5237     1.2535     1.2535     1.2535     0.0000     0.0000     0.0000 </r>
      <r>     1.5729     1.3605     1.3605     1.3605     0.0000     0.0000     0.0000 </r>
      <r>     1.6220     1.4801     1.4801     1.4801     0.0000     0.0000     0.0000 </r>
      <r>     1.6712     1.6147     1.6147     1.6147     0.0000     0.0000     0.0000 </r>
      <r>     1.7203     1.7672     1.7672     1.7672     0.0000     0.0000     0.0000 </r>
      <r>     1.7695     1.9413     1.9413     1.9413     0.0000     0.0000     0.0000 </r>
      <r>     1.8186     2.1416     2.1416     2.1416     0.0000     0.0000     0.0000 </r>
      <r>     1.8678     2.3742     2.3742     2.3742     0.0000     0.0000     0.0000 </r>
      <r>     1.9169     2.6471     2.6471     2.6471     0.0000     0.0000     0.0000 </r>
      <r>     1.9661     2.9709     2.9709     2.9709     0.0000     0.0000     0.0000 </r>
      <r>     2.0152     3.3606     3.3606     3.3606     0.0000     0.0000     0.0000 </r>
      <r>     2.0644     3.8370     3.8370     3.8370    -0.0000     0.0000     0.0000 </r>
      <r>     2.1135     4.4304     4.4304     4.4304    -0.0000     0.0000     0.0000 </r>
      <r>     2.1627     5.1866     5.1866     5.1866    -0.0000     0.0000     0.0000 </r>
      <r>     2.2118     6.1775     6.1775     6.1775    -0.0000     0.0000     0.0000 </r>
      <r>     2.2610     7.5219     7.5219     7.5219    -0.0000     0.0000     0.0000 </r>
      <r>     2.3101     9.4270     9.4270     9.4270    -0.0000     0.0000     0.0000 </r>
      <r>     2.3593    12.2679    12.2679    12.2679    -0.0000     0.0000     0.0000 </r>
      <r>     2.4084    16.6927    16.6927    16.6927    -0.0000     0.0000     0.0000 </r>
      <r>     2.4576    23.4592    23.4592    23.4592    -0.0000     0.0000     0.0000 </r>
      <r>     2.5067    32.2000    32.2000    32.2000    -0.0000     0.0000     0.0000 </r>
      <r>     2.5559    40.6383    40.6383    40.6383    -0.0000     0.0000    -0.0000 </r>
      <r>     2.6050    48.8308    48.8308    48.8308    -0.0000     0.0000    -0.0000 </r>
      <r>     2.6542    62.0894    62.0894    62.0894    -0.0000     0.0000    -0.0000 </r>
      <r>     2.7034    82.1570    82.1570    82.1570    -0.0000     0.0000    -0.0000 </r>
      <r>     2.7525    98.6918    98.6918    98.6918    -0.0000     0.0000    -0.0000 </r>
      <r>     2.8017    97.3492    97.3492    97.3492    -0.0000     0.0000     0.0000 </r>
      <r>     2.8508    79.9637    79.9637    79.9637    -0.0000     0.0000     0.0000 </r>
      <r>     2.9000    62.9270    62.9270    62.9270    -0.0000     0.0000     0.0000 </r>
      <r>     2.9491    55.2623    55.2623    55.2623    -0.0000     0.0000     0.0000 </r>
      <r>     2.9983    52.7570    52.7570    52.7570    -0.0000     0.0000     0.0000 </r>
      <r>     3.0474    46.8857    46.8857    46.8857    -0.0000     0.0000     0.0000 </r>
      <r>     3.0966    36.9206    36.9206    36.9206     0.0000     0.0000     0.0000 </r>
      <r>     3.1457    28.2419    28.2419    28.2419     0.0000     0.0000     0.0000 </r>
      <r>     3.1949    23.4053    23.4053    23.4053     0.0000     0.0000     0.0000 </r>
      <r>     3.2440    22.0245    22.0245    22.0245     0.0000    -0.0000     0.0000 </r>
      <r>     3.2932    23.2928    23.2928    23.2928     0.0000    -0.0000     0.0000 </r>
      <r>     3.3423    26.0405    26.0405    26.0405     0.0000    -0.0000     0.0000 </r>
      <r>     3.3915    29.0810    29.0810    29.0810     0.0000    -0.0000     0.0000 </r>
      <r>     3.4406    33.4327    33.4327    33.4327     0.0000    -0.0000     0.0000 </r>
      <r>     3.4898    41.4889    41.4889    41.4889     0.0000    -0.0000     0.0000 </r>
      <r>     3.5389    53.0972    53.0972    53.0972     0.0000    -0.0000     0.0000 </r>
      <r>     3.5881    66.3524    66.3524    66.3524     0.0000    -0.0000     0.0000 </r>
      <r>     3.6372    83.6973    83.6973    83.6973     0.0000    -0.0000     0.0000 </r>
      <r>     3.6864   105.8023   105.8023   105.8023     0.0000    -0.0000     0.0000 </r>
      <r>     3.7355   118.4020   118.4020   118.4020     0.0000    -0.0000     0.0000 </r>
      <r>     3.7847   106.8927   106.8927   106.8927     0.0000    -0.0000     0.0000 </r>
      <r>     3.8338    79.4513    79.4513    79.4513     0.0000    -0.0000     0.0000 </r>
      <r>     3.8830    53.6186    53.6186    53.6186     0.0000    -0.0000     0.0000 </r>
      <r>     3.9322    36.5967    36.5967    36.5967     0.0000    -0.0000     0.0000 </r>
      <r>     3.9813    26.9352    26.9352    26.9352     0.0000    -0.0000     0.0000 </r>
      <r>     4.0305    21.9482    21.9482    21.9482     0.0000    -0.0000     0.0000 </r>
      <r>     4.0796    20.1922    20.1922    20.1922     0.0000    -0.0000     0.0000 </r>
      <r>     4.1288    21.3681    21.3681    21.3681     0.0000    -0.0000     0.0000 </r>
      <r>     4.1779    25.4748    25.4748    25.4748     0.0000    -0.0000     0.0000 </r>
      <r>     4.2271    30.5135    30.5135    30.5135     0.0000    -0.0000     0.0000 </r>
      <r>     4.2762    31.6155    31.6155    31.6155     0.0000    -0.0000     0.0000 </r>
      <r>     4.3254    27.1777    27.1777    27.1777     0.0000    -0.0000     0.0000 </r>
      <r>     4.3745    21.8659    21.8659    21.8659     0.0000    -0.0000     0.0000 </r>
      <r>     4.4237    19.4880    19.4880    19.4880     0.0000    -0.0000     0.0000 </r>
      <r>     4.4728    20.1306    20.1306    20.1306     0.0000    -0.0000     0.0000 </r>
      <r>     4.5220    21.0758    21.0758    21.0758     0.0000    -0.0000     0.0000 </r>
      <r>     4.5711    19.0909    19.0909    19.0909     0.0000    -0.0000     0.0000 </r>
      <r>     4.6203    14.7523    14.7523    14.7523     0.0000    -0.0000     0.0000 </r>
      <r>     4.6694    10.8087    10.8087    10.8087     0.0000    -0.0000     0.0000 </r>
      <r>     4.7186     8.3277     8.3277     8.3277     0.0000    -0.0000     0.0000 </r>
      <r>     4.7677     7.0397     7.0397     7.0397     0.0000    -0.0000     0.0000 </r>
      <r>     4.8169     6.6215     6.6215     6.6215     0.0000    -0.0000     0.0000 </r>
      <r>     4.8660     7.0258     7.0258     7.0258     0.0000    -0.0000     0.0000 </r>
      <r>     4.9152     8.4237     8.4237     8.4237     0.0000    -0.0000     0.0000 </r>
      <r>     4.9643    10.7298    10.7298    10.7298     0.0000    -0.0000     0.0000 </r>
      <r>     5.0135    12.5940    12.5940    12.5940     0.0000    -0.0000     0.0000 </r>
      <r>     5.0626    12.0351    12.0351    12.0351     0.0000    -0.0000     0.0000 </r>
      <r>     5.1118     9.3744     9.3744     9.3744     0.0000    -0.0000     0.0000 </r>
      <r>     5.1609     6.6154     6.6154     6.6154     0.0000    -0.0000     0.0000 </r>
      <r>     5.2101     4.7211     4.7211     4.7211     0.0000    -0.0000     0.0000 </r>
      <r>     5.2593     3.5666     3.5666     3.5666     0.0000    -0.0000     0.0000 </r>
      <r>     5.3084     2.8505     2.8505     2.8505     0.0000    -0.0000     0.0000 </r>
      <r>     5.3576     2.3801     2.3801     2.3801     0.0000    -0.0000     0.0000 </r>
      <r>     5.4067     2.0534     2.0534     2.0534     0.0000    -0.0000     0.0000 </r>
      <r>     5.4559     1.8162     1.8162     1.8162     0.0000    -0.0000     0.0000 </r>
      <r>     5.5050     1.6387     1.6387     1.6387     0.0000    -0.0000     0.0000 </r>
      <r>     5.5542     1.5037     1.5037     1.5037     0.0000    -0.0000     0.0000 </r>
      <r>     5.6033     1.4015     1.4015     1.4015     0.0000    -0.0000     0.0000 </r>
      <r>     5.6525     1.3270     1.3270     1.3270     0.0000    -0.0000     0.0000 </r>
      <r>     5.7016     1.2792     1.2792     1.2792     0.0000    -0.0000     0.0000 </r>
      <r>     5.7508     1.2611     1.2611     1.2611     0.0000    -0.0000     0.0000 </r>
      <r>     5.7999     1.2816     1.2816     1.2816     0.0000    -0.0000     0.0000 </r>
      <r>     5.8491     1.3579     1.3579     1.3579     0.0000    -0.0000     0.0000 </r>
      <r>     5.8982     1.5096     1.5096     1.5096     0.0000     0.0000     0.0000 </r>
      <r>     5.9474     1.7448     1.7448     1.7448     0.0000    -0.0000     0.0000 </r>
      <r>     5.9965     2.0841     2.0841     2.0841     0.0000    -0.0000     0.0000 </r>
      <r>     6.0457     2.5697     2.5697     2.5697     0.0000    -0.0000     0.0000 </r>
      <r>     6.0948     3.0471     3.0471     3.0471     0.0000    -0.0000     0.0000 </r>
      <r>     6.1440     3.1414     3.1414     3.1414     0.0000    -0.0000     0.0000 </r>
      <r>     6.1931     2.7837     2.7837     2.7837     0.0000    -0.0000     0.0000 </r>
      <r>     6.2423     2.2380     2.2380     2.2380     0.0000    -0.0000     0.0000 </r>
      <r>     6.2914     1.7300     1.7300     1.7300     0.0000    -0.0000     0.0000 </r>
      <r>     6.3406     1.3710     1.3710     1.3710     0.0000    -0.0000     0.0000 </r>
      <r>     6.3897     1.1654     1.1654     1.1654     0.0000    -0.0000     0.0000 </r>
      <r>     6.4389     1.0759     1.0759     1.0759     0.0000    -0.0000     0.0000 </r>
      <r>     6.4880     1.0840     1.0840     1.0840     0.0000    -0.0000     0.0000 </r>
      <r>     6.5372     1.1970     1.1970     1.1970     0.0000    -0.0000     0.0000 </r>
      <r>     6.5864     1.4009     1.4009     1.4009     0.0000    -0.0000     0.0000 </r>
      <r>     6.6355     1.5623     1.5623     1.5623     0.0000    -0.0000     0.0000 </r>
      <r>     6.6847     1.4938     1.4938     1.4938     0.0000    -0.0000     0.0000 </r>
      <r>     6.7338     1.2367     1.2367     1.2367     0.0000    -0.0000     0.0000 </r>
      <r>     6.7830     0.9827     0.9827     0.9827     0.0000    -0.0000     0.0000 </r>
      <r>     6.8321     0.8144     0.8144     0.8144     0.0000    -0.0000     0.0000 </r>
      <r>     6.8813     0.7158     0.7158     0.7158     0.0000    -0.0000     0.0000 </r>
      <r>     6.9304     0.6588     0.6588     0.6588     0.0000    -0.0000     0.0000 </r>
      <r>     6.9796     0.6268     0.6268     0.6268     0.0000    -0.0000     0.0000 </r>
      <r>     7.0287     0.6112     0.6112     0.6112     0.0000    -0.0000     0.0000 </r>
      <r>     7.0779     0.6080     0.6080     0.6080     0.0000    -0.0000     0.0000 </r>
      <r>     7.1270     0.6159     0.6159     0.6159     0.0000    -0.0000     0.0000 </r>
      <r>     7.1762     0.6350     0.6350     0.6350     0.0000    -0.0000     0.0000 </r>
      <r>     7.2253     0.6672     0.6672     0.6672     0.0000    -0.0000     0.0000 </r>
      <r>     7.2745     0.7164     0.7164     0.7164     0.0000    -0.0000     0.0000 </r>
      <r>     7.3236     0.7894     0.7894     0.7894     0.0000    -0.0000     0.0000 </r>
      <r>     7.3728     0.8972     0.8972     0.8972     0.0000    -0.0000     0.0000 </r>
      <r>     7.4219     1.0522     1.0522     1.0522     0.0000    -0.0000     0.0000 </r>
      <r>     7.4711     1.2646     1.2646     1.2646     0.0000    -0.0000     0.0000 </r>
      <r>     7.5202     1.5634     1.5634     1.5634     0.0000    -0.0000     0.0000 </r>
      <r>     7.5694     2.0267     2.0267     2.0267     0.0000    -0.0000     0.0000 </r>
      <r>     7.6185     2.7230     2.7230     2.7230     0.0000    -0.0000     0.0000 </r>
      <r>     7.6677     3.5973     3.5973     3.5973     0.0000    -0.0000     0.0000 </r>
      <r>     7.7168     4.5052     4.5052     4.5052     0.0000    -0.0000     0.0000 </r>
      <r>     7.7660     5.2829     5.2829     5.2829     0.0000    -0.0000     0.0000 </r>
      <r>     7.8151     5.7348     5.7348     5.7348     0.0000    -0.0000     0.0000 </r>
      <r>     7.8643     6.0731     6.0731     6.0731     0.0000    -0.0000     0.0000 </r>
      <r>     7.9135     6.8280     6.8280     6.8280     0.0000    -0.0000     0.0000 </r>
      <r>     7.9626     7.7596     7.7596     7.7596     0.0000    -0.0000     0.0000 </r>
      <r>     8.0118     7.9162     7.9162     7.9162     0.0000    -0.0000    -0.0000 </r>
      <r>     8.0609     7.2657     7.2657     7.2657     0.0000    -0.0000    -0.0000 </r>
      <r>     8.1101     6.5280     6.5280     6.5280     0.0000    -0.0000    -0.0000 </r>
      <r>     8.1592     5.6020     5.6020     5.6020     0.0000    -0.0000    -0.0000 </r>
      <r>     8.2084     4.2862     4.2862     4.2862     0.0000    -0.0000    -0.0000 </r>
      <r>     8.2575     3.0550     3.0550     3.0550     0.0000    -0.0000    -0.0000 </r>
      <r>     8.3067     2.2383     2.2383     2.2383     0.0000    -0.0000    -0.0000 </r>
      <r>     8.3558     1.7929     1.7929     1.7929     0.0000    -0.0000    -0.0000 </r>
      <r>     8.4050     1.6105     1.6105     1.6105     0.0000    -0.0000    -0.0000 </r>
      <r>     8.4541     1.6223     1.6223     1.6223     0.0000    -0.0000    -0.0000 </r>
      <r>     8.5033     1.7210     1.7210     1.7210     0.0000    -0.0000    -0.0000 </r>
      <r>     8.5524     1.7188     1.7188     1.7188     0.0000    -0.0000    -0.0000 </r>
      <r>     8.6016     1.5458     1.5458     1.5458    -0.0000    -0.0000    -0.0000 </r>
      <r>     8.6507     1.3592     1.3592     1.3592    -0.0000    -0.0000    -0.0000 </r>
      <r>     8.6999     1.3128     1.3128     1.3128    -0.0000    -0.0000    -0.0000 </r>
      <r>     8.7490     1.4642     1.4642     1.4642    -0.0000    -0.0000    -0.0000 </r>
      <r>     8.7982     1.8034     1.8034     1.8034    -0.0000    -0.0000    -0.0000 </r>
      <r>     8.8473     2.1495     2.1495     2.1495    -0.0000    -0.0000    -0.0000 </r>
      <r>     8.8965     2.1834     2.1834     2.1834    -0.0000    -0.0000    -0.0000 </r>
      <r>     8.9456     1.8638     1.8638     1.8638    -0.0000    -0.0000    -0.0000 </r>
      <r>     8.9948     1.4718     1.4718     1.4718    -0.0000    -0.0000    -0.0000 </r>
      <r>     9.0439     1.2215     1.2215     1.2215    -0.0000    -0.0000    -0.0000 </r>
      <r>     9.0931     1.1557     1.1557     1.1557    -0.0000     0.0000    -0.0000 </r>
      <r>     9.1422     1.2747     1.2747     1.2747    -0.0000     0.0000    -0.0000 </r>
      <r>     9.1914     1.6024     1.6024     1.6024     0.0000     0.0000    -0.0000 </r>
      <r>     9.2406     2.0964     2.0964     2.0964     0.0000     0.0000     0.0000 </r>
      <r>     9.2897     2.4753     2.4753     2.4753     0.0000     0.0000     0.0000 </r>
      <r>     9.3389     2.4436     2.4436     2.4436     0.0000     0.0000     0.0000 </r>
      <r>     9.3880     2.1921     2.1921     2.1921     0.0000    -0.0000     0.0000 </r>
      <r>     9.4372     2.0042     2.0042     2.0042     0.0000    -0.0000     0.0000 </r>
      <r>     9.4863     1.7889     1.7889     1.7889     0.0000    -0.0000    -0.0000 </r>
      <r>     9.5355     1.4332     1.4332     1.4332     0.0000     0.0000    -0.0000 </r>
      <r>     9.5846     1.0779     1.0779     1.0779     0.0000     0.0000    -0.0000 </r>
      <r>     9.6338     0.8431     0.8431     0.8431     0.0000     0.0000    -0.0000 </r>
      <r>     9.6829     0.7293     0.7293     0.7293     0.0000     0.0000    -0.0000 </r>
      <r>     9.7321     0.7131     0.7131     0.7131     0.0000     0.0000    -0.0000 </r>
      <r>     9.7812     0.7946     0.7946     0.7946     0.0000     0.0000    -0.0000 </r>
      <r>     9.8304     0.9794     0.9794     0.9794     0.0000     0.0000    -0.0000 </r>
      <r>     9.8795     1.1908     1.1908     1.1908     0.0000     0.0000     0.0000 </r>
      <r>     9.9287     1.2374     1.2374     1.2374     0.0000     0.0000     0.0000 </r>
      <r>     9.9778     1.0471     1.0471     1.0471     0.0000     0.0000     0.0000 </r>
      <r>    10.0270     0.7823     0.7823     0.7823     0.0000     0.0000     0.0000 </r>
      <r>    10.0761     0.5795     0.5795     0.5795     0.0000     0.0000     0.0000 </r>
      <r>    10.1253     0.4548     0.4548     0.4548     0.0000     0.0000     0.0000 </r>
      <r>    10.1744     0.3824     0.3824     0.3824     0.0000     0.0000     0.0000 </r>
      <r>    10.2236     0.3411     0.3411     0.3411     0.0000     0.0000     0.0000 </r>
      <r>    10.2727     0.3194     0.3194     0.3194     0.0000     0.0000     0.0000 </r>
      <r>    10.3219     0.3120     0.3120     0.3120     0.0000     0.0000     0.0000 </r>
      <r>    10.3710     0.3178     0.3178     0.3178     0.0000     0.0000     0.0000 </r>
      <r>    10.4202     0.3386     0.3386     0.3386     0.0000     0.0000     0.0000 </r>
      <r>    10.4694     0.3804     0.3804     0.3804     0.0000     0.0000    -0.0000 </r>
      <r>    10.5185     0.4545     0.4545     0.4545    -0.0000     0.0000    -0.0000 </r>
      <r>    10.5677     0.5731     0.5731     0.5731    -0.0000     0.0000    -0.0000 </r>
      <r>    10.6168     0.7334     0.7334     0.7334    -0.0000     0.0000    -0.0000 </r>
      <r>    10.6660     0.9248     0.9248     0.9248    -0.0000     0.0000    -0.0000 </r>
      <r>    10.7151     1.1690     1.1690     1.1690    -0.0000     0.0000    -0.0000 </r>
      <r>    10.7643     1.4724     1.4724     1.4724    -0.0000     0.0000    -0.0000 </r>
      <r>    10.8134     1.7394     1.7394     1.7394    -0.0000     0.0000    -0.0000 </r>
      <r>    10.8626     1.7845     1.7845     1.7845    -0.0000     0.0000    -0.0000 </r>
      <r>    10.9117     1.5198     1.5198     1.5198    -0.0000     0.0000    -0.0000 </r>
      <r>    10.9609     1.1520     1.1520     1.1520    -0.0000     0.0000    -0.0000 </r>
      <r>    11.0100     0.9049     0.9049     0.9049    -0.0000     0.0000    -0.0000 </r>
      <r>    11.0592     0.8263     0.8263     0.8263    -0.0000     0.0000    -0.0000 </r>
      <r>    11.1083     0.8501     0.8501     0.8501    -0.0000     0.0000    -0.0000 </r>
      <r>    11.1575     0.8431     0.8431     0.8431    -0.0000     0.0000     0.0000 </r>
      <r>    11.2066     0.7213     0.7213     0.7213    -0.0000     0.0000     0.0000 </r>
      <r>    11.2558     0.5547     0.5547     0.5547    -0.0000     0.0000     0.0000 </r>
      <r>    11.3049     0.4291     0.4291     0.4291     0.0000     0.0000     0.0000 </r>
      <r>    11.3541     0.3596     0.3596     0.3596     0.0000     0.0000     0.0000 </r>
      <r>    11.4032     0.3337     0.3337     0.3337     0.0000     0.0000     0.0000 </r>
      <r>    11.4524     0.3458     0.3458     0.3458     0.0000    -0.0000     0.0000 </r>
      <r>    11.5015     0.3974     0.3974     0.3974     0.0000    -0.0000     0.0000 </r>
      <r>    11.5507     0.4731     0.4731     0.4731     0.0000    -0.0000     0.0000 </r>
      <r>    11.5998     0.5145     0.5145     0.5145     0.0000    -0.0000     0.0000 </r>
      <r>    11.6490     0.4775     0.4775     0.4775     0.0000    -0.0000     0.0000 </r>
      <r>    11.6981     0.4088     0.4088     0.4088     0.0000    -0.0000     0.0000 </r>
      <r>    11.7473     0.3721     0.3721     0.3721     0.0000    -0.0000     0.0000 </r>
      <r>    11.7965     0.3916     0.3916     0.3916     0.0000    -0.0000     0.0000 </r>
      <r>    11.8456     0.4741     0.4741     0.4741     0.0000    -0.0000     0.0000 </r>
      <r>    11.8948     0.6033     0.6033     0.6033     0.0000    -0.0000     0.0000 </r>
      <r>    11.9439     0.6988     0.6988     0.6988     0.0000    -0.0000     0.0000 </r>
      <r>    11.9931     0.6701     0.6701     0.6701     0.0000    -0.0000     0.0000 </r>
      <r>    12.0422     0.5462     0.5462     0.5462     0.0000    -0.0000     0.0000 </r>
      <r>    12.0914     0.4210     0.4210     0.4210     0.0000    -0.0000     0.0000 </r>
      <r>    12.1405     0.3376     0.3376     0.3376     0.0000    -0.0000     0.0000 </r>
      <r>    12.1897     0.2903     0.2903     0.2903     0.0000    -0.0000     0.0000 </r>
      <r>    12.2388     0.2717     0.2717     0.2717     0.0000    -0.0000     0.0000 </r>
      <r>    12.2880     0.2806     0.2806     0.2806     0.0000    -0.0000     0.0000 </r>
      <r>    12.3371     0.3085     0.3085     0.3085     0.0000    -0.0000     0.0000 </r>
      <r>    12.3863     0.3384     0.3384     0.3384     0.0000    -0.0000     0.0000 </r>
      <r>    12.4354     0.3724     0.3724     0.3724     0.0000    -0.0000     0.0000 </r>
      <r>    12.4846     0.4369     0.4369     0.4369     0.0000    -0.0000     0.0000 </r>
      <r>    12.5337     0.5267     0.5267     0.5267     0.0000    -0.0000    -0.0000 </r>
      <r>    12.5829     0.5809     0.5809     0.5809     0.0000    -0.0000    -0.0000 </r>
      <r>    12.6320     0.5626     0.5626     0.5626     0.0000    -0.0000     0.0000 </r>
      <r>    12.6812     0.5191     0.5191     0.5191    -0.0000    -0.0000     0.0000 </r>
      <r>    12.7303     0.5098     0.5098     0.5098    -0.0000    -0.0000     0.0000 </r>
      <r>    12.7795     0.5290     0.5290     0.5290    -0.0000    -0.0000     0.0000 </r>
      <r>    12.8286     0.5143     0.5143     0.5143    -0.0000    -0.0000     0.0000 </r>
      <r>    12.8778     0.4540     0.4540     0.4540    -0.0000    -0.0000     0.0000 </r>
      <r>    12.9269     0.3978     0.3978     0.3978    -0.0000    -0.0000     0.0000 </r>
      <r>    12.9761     0.3545     0.3545     0.3545    -0.0000    -0.0000     0.0000 </r>
      <r>    13.0252     0.3025     0.3025     0.3025    -0.0000    -0.0000     0.0000 </r>
      <r>    13.0744     0.2530     0.2530     0.2530    -0.0000     0.0000     0.0000 </r>
      <r>    13.1236     0.2258     0.2258     0.2258    -0.0000     0.0000     0.0000 </r>
      <r>    13.1727     0.2186     0.2186     0.2186    -0.0000     0.0000     0.0000 </r>
      <r>    13.2219     0.2168     0.2168     0.2168    -0.0000    -0.0000    -0.0000 </r>
      <r>    13.2710     0.2176     0.2176     0.2176    -0.0000    -0.0000    -0.0000 </r>
      <r>    13.3202     0.2271     0.2271     0.2271    -0.0000    -0.0000    -0.0000 </r>
      <r>    13.3693     0.2395     0.2395     0.2395     0.0000    -0.0000    -0.0000 </r>
      <r>    13.4185     0.2383     0.2383     0.2383     0.0000    -0.0000    -0.0000 </r>
      <r>    13.4676     0.2130     0.2130     0.2130     0.0000     0.0000    -0.0000 </r>
      <r>    13.5168     0.1791     0.1791     0.1791     0.0000     0.0000    -0.0000 </r>
      <r>    13.5659     0.1578     0.1578     0.1578     0.0000     0.0000    -0.0000 </r>
      <r>    13.6151     0.1558     0.1558     0.1558     0.0000     0.0000    -0.0000 </r>
      <r>    13.6642     0.1687     0.1687     0.1687     0.0000     0.0000     0.0000 </r>
      <r>    13.7134     0.1851     0.1851     0.1851     0.0000     0.0000     0.0000 </r>
      <r>    13.7625     0.1907     0.1907     0.1907     0.0000     0.0000     0.0000 </r>
      <r>    13.8117     0.1784     0.1784     0.1784     0.0000     0.0000     0.0000 </r>
      <r>    13.8608     0.1577     0.1577     0.1577     0.0000     0.0000     0.0000 </r>
      <r>    13.9100     0.1445     0.1445     0.1445     0.0000    -0.0000     0.0000 </r>
      <r>    13.9591     0.1407     0.1407     0.1407     0.0000    -0.0000     0.0000 </r>
      <r>    14.0083     0.1365     0.1365     0.1365     0.0000    -0.0000     0.0000 </r>
      <r>    14.0574     0.1286     0.1286     0.1286     0.0000    -0.0000     0.0000 </r>
      <r>    14.1066     0.1231     0.1231     0.1231     0.0000    -0.0000     0.0000 </r>
      <r>    14.1557     0.1234     0.1234     0.1234     0.0000    -0.0000     0.0000 </r>
      <r>    14.2049     0.1306     0.1306     0.1306    -0.0000    -0.0000     0.0000 </r>
      <r>    14.2540     0.1498     0.1498     0.1498    -0.0000    -0.0000    -0.0000 </r>
      <r>    14.3032     0.1893     0.1893     0.1893    -0.0000    -0.0000    -0.0000 </r>
      <r>    14.3523     0.2552     0.2552     0.2552    -0.0000    -0.0000    -0.0000 </r>
      <r>    14.4015     0.3320     0.3320     0.3320    -0.0000    -0.0000    -0.0000 </r>
      <r>    14.4507     0.3744     0.3744     0.3744    -0.0000    -0.0000    -0.0000 </r>
      <r>    14.4998     0.3630     0.3630     0.3630    -0.0000    -0.0000    -0.0000 </r>
      <r>    14.5490     0.3340     0.3340     0.3340     0.0000    -0.0000    -0.0000 </r>
      <r>    14.5981     0.3190     0.3190     0.3190     0.0000    -0.0000    -0.0000 </r>
      <r>    14.6473     0.3146     0.3146     0.3146     0.0000    -0.0000     0.0000 </r>
      <r>    14.6964     0.2976     0.2976     0.2976     0.0000    -0.0000     0.0000 </r>
      <r>    14.7456     0.2567     0.2567     0.2567     0.0000    -0.0000     0.0000 </r>
      <r>    14.7947     0.2136     0.2136     0.2136     0.0000    -0.0000     0.0000 </r>
      <r>    14.8439     0.1927     0.1927     0.1927     0.0000    -0.0000     0.0000 </r>
      <r>    14.8930     0.1989     0.1989     0.1989     0.0000    -0.0000     0.0000 </r>
      <r>    14.9422     0.2207     0.2207     0.2207     0.0000    -0.0000     0.0000 </r>
      <r>    14.9913     0.2388     0.2388     0.2388     0.0000    -0.0000     0.0000 </r>
      <r>    15.0405     0.2433     0.2433     0.2433     0.0000    -0.0000     0.0000 </r>
      <r>    15.0896     0.2386     0.2386     0.2386     0.0000    -0.0000     0.0000 </r>
      <r>    15.1388     0.2282     0.2282     0.2282     0.0000     0.0000     0.0000 </r>
      <r>    15.1879     0.2078     0.2078     0.2078     0.0000     0.0000     0.0000 </r>
      <r>    15.2371     0.1813     0.1813     0.1813     0.0000     0.0000     0.0000 </r>
      <r>    15.2862     0.1653     0.1653     0.1653     0.0000     0.0000     0.0000 </r>
      <r>    15.3354     0.1724     0.1724     0.1724     0.0000     0.0000     0.0000 </r>
      <r>    15.3845     0.2034     0.2034     0.2034     0.0000    -0.0000    -0.0000 </r>
      <r>    15.4337     0.2383     0.2383     0.2383    -0.0000    -0.0000    -0.0000 </r>
      <r>    15.4828     0.2389     0.2389     0.2389    -0.0000    -0.0000    -0.0000 </r>
      <r>    15.5320     0.1979     0.1979     0.1979    -0.0000     0.0000    -0.0000 </r>
      <r>    15.5811     0.1506     0.1506     0.1506    -0.0000     0.0000    -0.0000 </r>
      <r>    15.6303     0.1206     0.1206     0.1206    -0.0000     0.0000    -0.0000 </r>
      <r>    15.6794     0.1075     0.1075     0.1075    -0.0000     0.0000    -0.0000 </r>
      <r>    15.7286     0.1033     0.1033     0.1033     0.0000     0.0000    -0.0000 </r>
      <r>    15.7778     0.0980     0.0980     0.0980     0.0000     0.0000    -0.0000 </r>
      <r>    15.8269     0.0868     0.0868     0.0868     0.0000     0.0000    -0.0000 </r>
      <r>    15.8761     0.0747     0.0747     0.0747     0.0000     0.0000    -0.0000 </r>
      <r>    15.9252     0.0660     0.0660     0.0660     0.0000    -0.0000     0.0000 </r>
      <r>    15.9744     0.0605     0.0605     0.0605     0.0000    -0.0000     0.0000 </r>
      <r>    16.0235     0.0576     0.0576     0.0576     0.0000    -0.0000     0.0000 </r>
      <r>    16.0727     0.0575     0.0575     0.0575     0.0000    -0.0000     0.0000 </r>
      <r>    16.1218     0.0608     0.0608     0.0608     0.0000    -0.0000     0.0000 </r>
      <r>    16.1710     0.0690     0.0690     0.0690     0.0000    -0.0000     0.0000 </r>
      <r>    16.2201     0.0821     0.0821     0.0821     0.0000    -0.0000     0.0000 </r>
      <r>    16.2693     0.0938     0.0938     0.0938     0.0000    -0.0000     0.0000 </r>
      <r>    16.3184     0.0942     0.0942     0.0942     0.0000    -0.0000     0.0000 </r>
      <r>    16.3676     0.0859     0.0859     0.0859     0.0000    -0.0000     0.0000 </r>
      <r>    16.4167     0.0794     0.0794     0.0794     0.0000    -0.0000     0.0000 </r>
      <r>    16.4659     0.0802     0.0802     0.0802     0.0000     0.0000     0.0000 </r>
      <r>    16.5150     0.0902     0.0902     0.0902     0.0000     0.0000     0.0000 </r>
      <r>    16.5642     0.1087     0.1087     0.1087     0.0000     0.0000     0.0000 </r>
      <r>    16.6133     0.1258     0.1258     0.1258     0.0000     0.0000     0.0000 </r>
      <r>    16.6625     0.1279     0.1279     0.1279     0.0000    -0.0000     0.0000 </r>
      <r>    16.7116     0.1172     0.1172     0.1172     0.0000    -0.0000     0.0000 </r>
      <r>    16.7608     0.1102     0.1102     0.1102     0.0000    -0.0000     0.0000 </r>
      <r>    16.8099     0.1193     0.1193     0.1193     0.0000    -0.0000     0.0000 </r>
      <r>    16.8591     0.1488     0.1488     0.1488     0.0000    -0.0000     0.0000 </r>
      <r>    16.9082     0.1923     0.1923     0.1923     0.0000    -0.0000     0.0000 </r>
      <r>    16.9574     0.2229     0.2229     0.2229     0.0000    -0.0000     0.0000 </r>
      <r>    17.0065     0.2117     0.2117     0.2117     0.0000    -0.0000     0.0000 </r>
      <r>    17.0557     0.1682     0.1682     0.1682     0.0000    -0.0000     0.0000 </r>
      <r>    17.1049     0.1255     0.1255     0.1255     0.0000    -0.0000     0.0000 </r>
      <r>    17.1540     0.0999     0.0999     0.0999     0.0000    -0.0000     0.0000 </r>
      <r>    17.2032     0.0882     0.0882     0.0882     0.0000    -0.0000     0.0000 </r>
      <r>    17.2523     0.0805     0.0805     0.0805    -0.0000    -0.0000     0.0000 </r>
      <r>    17.3015     0.0708     0.0708     0.0708    -0.0000    -0.0000     0.0000 </r>
      <r>    17.3506     0.0615     0.0615     0.0615    -0.0000    -0.0000     0.0000 </r>
      <r>    17.3998     0.0565     0.0565     0.0565    -0.0000    -0.0000     0.0000 </r>
      <r>    17.4489     0.0572     0.0572     0.0572    -0.0000    -0.0000     0.0000 </r>
      <r>    17.4981     0.0646     0.0646     0.0646    -0.0000    -0.0000     0.0000 </r>
      <r>    17.5472     0.0785     0.0785     0.0785    -0.0000    -0.0000     0.0000 </r>
      <r>    17.5964     0.0915     0.0915     0.0915    -0.0000    -0.0000     0.0000 </r>
      <r>    17.6455     0.0904     0.0904     0.0904    -0.0000    -0.0000     0.0000 </r>
      <r>    17.6947     0.0751     0.0751     0.0751    -0.0000    -0.0000     0.0000 </r>
      <r>    17.7438     0.0584     0.0584     0.0584    -0.0000    -0.0000     0.0000 </r>
      <r>    17.7930     0.0472     0.0472     0.0472    -0.0000    -0.0000     0.0000 </r>
      <r>    17.8421     0.0411     0.0411     0.0411    -0.0000    -0.0000     0.0000 </r>
      <r>    17.8913     0.0382     0.0382     0.0382    -0.0000    -0.0000     0.0000 </r>
      <r>    17.9404     0.0373     0.0373     0.0373    -0.0000    -0.0000     0.0000 </r>
      <r>    17.9896     0.0379     0.0379     0.0379    -0.0000    -0.0000     0.0000 </r>
      <r>    18.0387     0.0402     0.0402     0.0402    -0.0000    -0.0000     0.0000 </r>
      <r>    18.0879     0.0445     0.0445     0.0445     0.0000    -0.0000     0.0000 </r>
      <r>    18.1370     0.0515     0.0515     0.0515     0.0000     0.0000     0.0000 </r>
      <r>    18.1862     0.0623     0.0623     0.0623    -0.0000    -0.0000    -0.0000 </r>
      <r>    18.2353     0.0759     0.0759     0.0759    -0.0000    -0.0000    -0.0000 </r>
      <r>    18.2845     0.0846     0.0846     0.0846    -0.0000    -0.0000    -0.0000 </r>
      <r>    18.3337     0.0834     0.0834     0.0834    -0.0000    -0.0000    -0.0000 </r>
      <r>    18.3828     0.0798     0.0798     0.0798    -0.0000    -0.0000    -0.0000 </r>
      <r>    18.4320     0.0829     0.0829     0.0829    -0.0000    -0.0000    -0.0000 </r>
      <r>    18.4811     0.0968     0.0968     0.0968    -0.0000    -0.0000    -0.0000 </r>
      <r>    18.5303     0.1194     0.1194     0.1194    -0.0000    -0.0000    -0.0000 </r>
      <r>    18.5794     0.1420     0.1420     0.1420    -0.0000    -0.0000    -0.0000 </r>
      <r>    18.6286     0.1568     0.1568     0.1568    -0.0000    -0.0000    -0.0000 </r>
      <r>    18.6777     0.1638     0.1638     0.1638    -0.0000     0.0000    -0.0000 </r>
      <r>    18.7269     0.1621     0.1621     0.1621    -0.0000     0.0000    -0.0000 </r>
      <r>    18.7760     0.1489     0.1489     0.1489    -0.0000     0.0000    -0.0000 </r>
      <r>    18.8252     0.1323     0.1323     0.1323    -0.0000     0.0000    -0.0000 </r>
      <r>    18.8743     0.1220     0.1220     0.1220    -0.0000     0.0000    -0.0000 </r>
      <r>    18.9235     0.1151     0.1151     0.1151    -0.0000     0.0000    -0.0000 </r>
      <r>    18.9726     0.1103     0.1103     0.1103    -0.0000     0.0000    -0.0000 </r>
      <r>    19.0218     0.1151     0.1151     0.1151    -0.0000     0.0000    -0.0000 </r>
      <r>    19.0709     0.1320     0.1320     0.1320    -0.0000     0.0000    -0.0000 </r>
      <r>    19.1201     0.1454     0.1454     0.1454    -0.0000    -0.0000    -0.0000 </r>
      <r>    19.1692     0.1350     0.1350     0.1350    -0.0000    -0.0000    -0.0000 </r>
      <r>    19.2184     0.1087     0.1087     0.1087    -0.0000    -0.0000    -0.0000 </r>
      <r>    19.2675     0.0876     0.0876     0.0876    -0.0000    -0.0000    -0.0000 </r>
      <r>    19.3167     0.0802     0.0802     0.0802    -0.0000    -0.0000    -0.0000 </r>
      <r>    19.3658     0.0851     0.0851     0.0851    -0.0000    -0.0000    -0.0000 </r>
      <r>    19.4150     0.0958     0.0958     0.0958    -0.0000    -0.0000    -0.0000 </r>
      <r>    19.4641     0.1004     0.1004     0.1004    -0.0000    -0.0000    -0.0000 </r>
      <r>    19.5133     0.0921     0.0921     0.0921    -0.0000    -0.0000    -0.0000 </r>
      <r>    19.5624     0.0765     0.0765     0.0765    -0.0000     0.0000    -0.0000 </r>
      <r>    19.6116     0.0617     0.0617     0.0617    -0.0000     0.0000    -0.0000 </r>
      <r>    19.6608     0.0514     0.0514     0.0514    -0.0000     0.0000    -0.0000 </r>
      <r>    19.7099     0.0462     0.0462     0.0462    -0.0000     0.0000    -0.0000 </r>
      <r>    19.7591     0.0459     0.0459     0.0459    -0.0000     0.0000    -0.0000 </r>
      <r>    19.8082     0.0487     0.0487     0.0487    -0.0000    -0.0000    -0.0000 </r>
      <r>    19.8574     0.0516     0.0516     0.0516     0.0000    -0.0000    -0.0000 </r>
      <r>    19.9065     0.0540     0.0540     0.0540     0.0000    -0.0000    -0.0000 </r>
      <r>    19.9557     0.0584     0.0584     0.0584     0.0000    -0.0000    -0.0000 </r>
      <r>    20.0048     0.0636     0.0636     0.0636     0.0000    -0.0000    -0.0000 </r>
      <r>    20.0540     0.0641     0.0641     0.0641     0.0000    -0.0000    -0.0000 </r>
      <r>    20.1031     0.0594     0.0594     0.0594     0.0000    -0.0000    -0.0000 </r>
      <r>    20.1523     0.0543     0.0543     0.0543     0.0000    -0.0000     0.0000 </r>
      <r>    20.2014     0.0534     0.0534     0.0534     0.0000    -0.0000     0.0000 </r>
      <r>    20.2506     0.0591     0.0591     0.0591     0.0000    -0.0000     0.0000 </r>
      <r>    20.2997     0.0724     0.0724     0.0724     0.0000    -0.0000     0.0000 </r>
      <r>    20.3489     0.0896     0.0896     0.0896    -0.0000     0.0000     0.0000 </r>
      <r>    20.3980     0.1039     0.1039     0.1039    -0.0000     0.0000     0.0000 </r>
      <r>    20.4472     0.1098     0.1098     0.1098    -0.0000     0.0000     0.0000 </r>
      <r>    20.4963     0.1032     0.1032     0.1032     0.0000     0.0000     0.0000 </r>
      <r>    20.5455     0.0882     0.0882     0.0882     0.0000     0.0000     0.0000 </r>
      <r>    20.5946     0.0777     0.0777     0.0777     0.0000     0.0000     0.0000 </r>
      <r>    20.6438     0.0786     0.0786     0.0786     0.0000     0.0000     0.0000 </r>
      <r>    20.6929     0.0876     0.0876     0.0876     0.0000     0.0000     0.0000 </r>
      <r>    20.7421     0.0936     0.0936     0.0936     0.0000     0.0000     0.0000 </r>
      <r>    20.7912     0.0921     0.0921     0.0921     0.0000     0.0000     0.0000 </r>
      <r>    20.8404     0.0898     0.0898     0.0898     0.0000     0.0000     0.0000 </r>
      <r>    20.8895     0.0880     0.0880     0.0880     0.0000    -0.0000     0.0000 </r>
      <r>    20.9387     0.0829     0.0829     0.0829    -0.0000    -0.0000     0.0000 </r>
      <r>    20.9879     0.0742     0.0742     0.0742    -0.0000    -0.0000    -0.0000 </r>
      <r>    21.0370     0.0622     0.0622     0.0622    -0.0000    -0.0000    -0.0000 </r>
      <r>    21.0862     0.0488     0.0488     0.0488    -0.0000    -0.0000    -0.0000 </r>
      <r>    21.1353     0.0380     0.0380     0.0380    -0.0000    -0.0000    -0.0000 </r>
      <r>    21.1845     0.0315     0.0315     0.0315    -0.0000    -0.0000     0.0000 </r>
      <r>    21.2336     0.0284     0.0284     0.0284    -0.0000    -0.0000     0.0000 </r>
      <r>    21.2828     0.0273     0.0273     0.0273    -0.0000    -0.0000     0.0000 </r>
      <r>    21.3319     0.0269     0.0269     0.0269    -0.0000    -0.0000     0.0000 </r>
      <r>    21.3811     0.0261     0.0261     0.0261    -0.0000    -0.0000    -0.0000 </r>
      <r>    21.4302     0.0252     0.0252     0.0252    -0.0000    -0.0000    -0.0000 </r>
      <r>    21.4794     0.0252     0.0252     0.0252    -0.0000    -0.0000    -0.0000 </r>
      <r>    21.5285     0.0271     0.0271     0.0271    -0.0000     0.0000    -0.0000 </r>
      <r>    21.5777     0.0309     0.0309     0.0309    -0.0000     0.0000    -0.0000 </r>
      <r>    21.6268     0.0344     0.0344     0.0344    -0.0000     0.0000    -0.0000 </r>
      <r>    21.6760     0.0350     0.0350     0.0350    -0.0000     0.0000    -0.0000 </r>
      <r>    21.7251     0.0346     0.0346     0.0346    -0.0000     0.0000    -0.0000 </r>
      <r>    21.7743     0.0368     0.0368     0.0368    -0.0000     0.0000    -0.0000 </r>
      <r>    21.8234     0.0423     0.0423     0.0423    -0.0000     0.0000    -0.0000 </r>
      <r>    21.8726     0.0478     0.0478     0.0478    -0.0000    -0.0000    -0.0000 </r>
      <r>    21.9217     0.0504     0.0504     0.0504    -0.0000    -0.0000    -0.0000 </r>
      <r>    21.9709     0.0501     0.0501     0.0501    -0.0000    -0.0000    -0.0000 </r>
      <r>    22.0200     0.0463     0.0463     0.0463    -0.0000    -0.0000    -0.0000 </r>
      <r>    22.0692     0.0405     0.0405     0.0405    -0.0000    -0.0000    -0.0000 </r>
      <r>    22.1183     0.0369     0.0369     0.0369    -0.0000    -0.0000    -0.0000 </r>
      <r>    22.1675     0.0379     0.0379     0.0379    -0.0000    -0.0000    -0.0000 </r>
      <r>    22.2166     0.0420     0.0420     0.0420    -0.0000     0.0000    -0.0000 </r>
      <r>    22.2658     0.0446     0.0446     0.0446    -0.0000     0.0000    -0.0000 </r>
      <r>    22.3150     0.0435     0.0435     0.0435    -0.0000     0.0000    -0.0000 </r>
      <r>    22.3641     0.0416     0.0416     0.0416    -0.0000    -0.0000    -0.0000 </r>
      <r>    22.4133     0.0414     0.0414     0.0414    -0.0000    -0.0000    -0.0000 </r>
      <r>    22.4624     0.0414     0.0414     0.0414    -0.0000    -0.0000    -0.0000 </r>
      <r>    22.5116     0.0393     0.0393     0.0393    -0.0000    -0.0000    -0.0000 </r>
      <r>    22.5607     0.0353     0.0353     0.0353    -0.0000    -0.0000    -0.0000 </r>
      <r>    22.6099     0.0310     0.0310     0.0310     0.0000    -0.0000     0.0000 </r>
      <r>    22.6590     0.0276     0.0276     0.0276     0.0000    -0.0000     0.0000 </r>
      <r>    22.7082     0.0257     0.0257     0.0257     0.0000    -0.0000     0.0000 </r>
      <r>    22.7573     0.0253     0.0253     0.0253     0.0000    -0.0000     0.0000 </r>
      <r>    22.8065     0.0272     0.0272     0.0272     0.0000    -0.0000     0.0000 </r>
      <r>    22.8556     0.0323     0.0323     0.0323     0.0000    -0.0000     0.0000 </r>
      <r>    22.9048     0.0398     0.0398     0.0398     0.0000    -0.0000     0.0000 </r>
      <r>    22.9539     0.0453     0.0453     0.0453     0.0000    -0.0000     0.0000 </r>
[...]
       <r>    61.9413     0.0032   104.0937 </r>
       <r>    61.9864     0.0000   104.0937 </r>
       <r>    62.0314     0.0000   104.0938 </r>
       <r>    62.0765     0.0030   104.0939 </r>
       <r>    62.1215     0.1353   104.1000 </r>
       <r>    62.1666     1.7315   104.1780 </r>
       <r>    62.2116     7.0106   104.4939 </r>
       <r>    62.2567     8.7030   104.8860 </r>
       <r>    62.3017     2.9860   105.0205 </r>
       <r>    62.3468     0.7004   105.0521 </r>
       <r>    62.3919     2.6742   105.1726 </r>
       <r>    62.4369     3.7851   105.3431 </r>
       <r>    62.4820     1.2963   105.4015 </r>
       <r>    62.5270     0.1288   105.4073 </r>
       <r>    62.5721     0.2321   105.4178 </r>
       <r>    62.6171     1.1531   105.4697 </r>
       <r>    62.6622     3.5861   105.6313 </r>
       <r>    62.7073     4.7163   105.8438 </r>
       <r>    62.7523     6.4991   106.1366 </r>
       <r>    62.7974     7.5976   106.4789 </r>
       <r>    62.8424     4.1445   106.6657 </r>
       <r>    62.8875     2.0466   106.7579 </r>
       <r>    62.9325     2.1082   106.8529 </r>
       <r>    62.9776     2.4314   106.9624 </r>
       <r>    63.0226     4.2258   107.1528 </r>
       <r>    63.0677     3.4447   107.3080 </r>
       <r>    63.1128     2.1620   107.4054 </r>
       <r>    63.1578     0.6582   107.4351 </r>
       <r>    63.2029     0.0704   107.4383 </r>
       <r>    63.2479     0.6205   107.4662 </r>
       <r>    63.2930     4.8776   107.6860 </r>
       <r>    63.3380     9.1971   108.1004 </r>
       <r>    63.3831     4.2315   108.2910 </r>
       <r>    63.4281     0.4670   108.3121 </r>
       <r>    63.4732     0.1127   108.3171 </r>
       <r>    63.5183     1.1579   108.3693 </r>
       <r>    63.5633     3.8123   108.5411 </r>
       <r>    63.6084     4.1360   108.7274 </r>
       <r>    63.6534     3.0597   108.8653 </r>
       <r>    63.6985     4.0696   109.0487 </r>
       <r>    63.7435     2.1130   109.1439 </r>
       <r>    63.7886     0.2673   109.1559 </r>
       <r>    63.8336     0.0077   109.1562 </r>
       <r>    63.8787     0.0000   109.1562 </r>
       <r>    63.9238     0.0000   109.1563 </r>
       <r>    63.9688     0.0014   109.1563 </r>
       <r>    64.0139     0.1047   109.1610 </r>
       <r>    64.0589     1.7564   109.2402 </r>
       <r>    64.1040     6.8443   109.5485 </r>
       <r>    64.1490     6.4178   109.8377 </r>
       <r>    64.1941     1.4453   109.9028 </r>
       <r>    64.2392     0.0753   109.9062 </r>
       <r>    64.2842     0.0009   109.9063 </r>
       <r>    64.3293     0.0020   109.9063 </r>
       <r>    64.3743     0.0962   109.9107 </r>
       <r>    64.4194     1.0307   109.9571 </r>
       <r>    64.4644     2.5990   110.0742 </r>
       <r>    64.5095     1.5834   110.1456 </r>
       <r>    64.5545     0.2297   110.1559 </r>
       <r>    64.5996     0.0076   110.1562 </r>
       <r>    64.6447     0.0001   110.1562 </r>
       <r>    64.6897     0.0000   110.1563 </r>
       <r>    64.7348     0.0039   110.1564 </r>
       <r>    64.7798     0.2137   110.1661 </r>
       <r>    64.8249     2.6310   110.2846 </r>
       <r>    64.8699     7.5931   110.6267 </r>
       <r>    64.9150     5.2904   110.8651 </r>
       <r>    64.9600     0.8839   110.9049 </r>
       <r>    65.0051     0.1766   110.9129 </r>
       <r>    65.0502     1.5019   110.9805 </r>
       <r>    65.0952     4.5561   111.1858 </r>
       <r>    65.1403     3.9369   111.3632 </r>
       <r>    65.1853     0.9046   111.4039 </r>
       <r>    65.2304     0.0507   111.4062 </r>
       <r>    65.2754     0.0006   111.4062 </r>
       <r>    65.3205     0.0000   111.4063 </r>
       <r>    65.3655     0.0000   111.4063 </r>
       <r>    65.4106     0.0048   111.4065 </r>
       <r>    65.4557     0.1971   111.4153 </r>
       <r>    65.5007     1.8978   111.5009 </r>
       <r>    65.5458     5.0573   111.7287 </r>
       <r>    65.5908     5.9301   111.9959 </r>
       <r>    65.6359     6.3278   112.2810 </r>
       <r>    65.6809     7.3803   112.6135 </r>
       <r>    65.7260     4.9588   112.8370 </r>
       <r>    65.7711     1.3978   112.8999 </r>
       <r>    65.8161     0.1380   112.9062 </r>
       <r>    65.8612     0.0881   112.9101 </r>
       <r>    65.9062     1.1554   112.9622 </r>
       <r>    65.9513     3.6909   113.1285 </r>
       <r>    65.9963     2.8439   113.2566 </r>
       <r>    66.0414     0.5244   113.2802 </r>
       <r>    66.0864     0.0222   113.2812 </r>
       <r>    66.1315     0.0005   113.2813 </r>
       <r>    66.1766     0.0315   113.2827 </r>
       <r>    66.2216     0.8504   113.3210 </r>
       <r>    66.2667     5.4190   113.5652 </r>
       <r>    66.3117    10.2810   114.0284 </r>
       <r>    66.3568    10.3066   114.4927 </r>
       <r>    66.4018     5.5005   114.7406 </r>
       <r>    66.4469     1.0872   114.7896 </r>
       <r>    66.4919     1.5565   114.8597 </r>
       <r>    66.5370     2.6150   114.9775 </r>
       <r>    66.5821     1.0961   115.0269 </r>
       <r>    66.6271     0.4550   115.0474 </r>
       <r>    66.6722     2.3934   115.1552 </r>
       <r>    66.7172     4.0116   115.3360 </r>
       <r>    66.7623     3.1490   115.4779 </r>
       <r>    66.8073     5.5214   115.7266 </r>
       <r>    66.8524     4.7075   115.9387 </r>
       <r>    66.8974     3.0241   116.0750 </r>
       <r>    66.9425     4.1699   116.2629 </r>
       <r>    66.9876     4.1407   116.4494 </r>
       <r>    67.0326     7.6084   116.7922 </r>
       <r>    67.0777     5.6338   117.0461 </r>
       <r>    67.1227     1.1693   117.0987 </r>
       <r>    67.1678     1.2675   117.1558 </r>
       <r>    67.2128     3.8708   117.3303 </r>
       <r>    67.2579     7.9891   117.6902 </r>
       <r>    67.3030     7.1725   118.0134 </r>
       <r>    67.3480     2.6072   118.1308 </r>
       <r>    67.3931     0.5249   118.1545 </r>
       <r>    67.4381     0.0993   118.1590 </r>
       <r>    67.4832     0.7983   118.1949 </r>
       <r>    67.5282     2.4807   118.3067 </r>
       <r>    67.5733     1.8615   118.3906 </r>
       <r>    67.6183     0.3341   118.4056 </r>
       <r>    67.6634     0.0146   118.4063 </r>
       <r>    67.7085     0.0616   118.4091 </r>
       <r>    67.7535     0.9646   118.4525 </r>
       <r>    67.7986     3.5193   118.6111 </r>
       <r>    67.8436     3.0927   118.7504 </r>
       <r>    67.8887     0.6520   118.7798 </r>
       <r>    67.9337     0.0317   118.7812 </r>
       <r>    67.9788     0.0042   118.7814 </r>
       <r>    68.0238     0.1718   118.7892 </r>
       <r>    68.0689     1.8117   118.8708 </r>
       <r>    68.1140     5.4092   119.1145 </r>
       <r>    68.1590     6.1000   119.3894 </r>
       <r>    68.2041     2.7579   119.5136 </r>
       <r>    68.2491     0.4718   119.5349 </r>
       <r>    68.2942     1.0160   119.5806 </r>
       <r>    68.3392     2.5910   119.6974 </r>
       <r>    68.3843     1.6880   119.7734 </r>
       <r>    68.4293     1.0531   119.8209 </r>
       <r>    68.4744     2.7548   119.9450 </r>
       <r>    68.5195     5.4515   120.1906 </r>
       <r>    68.5645     7.3543   120.5220 </r>
       <r>    68.6096     7.7027   120.8690 </r>
       <r>    68.6546     9.2134   121.2842 </r>
       <r>    68.6997     5.8027   121.5456 </r>
       <r>    68.7447     1.0308   121.5921 </r>
       <r>    68.7898     0.2068   121.6014 </r>
       <r>    68.8349     1.1727   121.6542 </r>
       <r>    68.8799     2.4226   121.7634 </r>
       <r>    68.9250     5.6190   122.0165 </r>
       <r>    68.9700    12.5306   122.5811 </r>
       <r>    69.0151     8.4200   122.9605 </r>
       <r>    69.0601     1.5016   123.0281 </r>
       <r>    69.1052     0.0685   123.0312 </r>
       <r>    69.1502     0.0008   123.0312 </r>
       <r>    69.1953     0.0000   123.0312 </r>
       <r>    69.2404     0.0000   123.0313 </r>
       <r>    69.2854     0.0000   123.0313 </r>
       <r>    69.3305     0.0013   123.0313 </r>
       <r>    69.3755     0.0992   123.0358 </r>
       <r>    69.4206     1.7026   123.1125 </r>
       <r>    69.4656     6.7781   123.4179 </r>
       <r>    69.5107     6.5075   123.7111 </r>
       <r>    69.5557     1.8261   123.7934 </r>
       <r>    69.6008     1.6373   123.8671 </r>
       <r>    69.6459     1.7519   123.9461 </r>
       <r>    69.6909     0.4993   123.9686 </r>
       <r>    69.7360     0.3942   123.9863 </r>
       <r>    69.7810     1.2141   124.0410 </r>
       <r>    69.8261     0.9757   124.0850 </r>
       <r>    69.8711     0.2789   124.0975 </r>
       <r>    69.9162     1.7803   124.1778 </r>
       <r>    69.9612     8.8207   124.5752 </r>
       <r>    70.0063    12.3866   125.1333 </r>
       <r>    70.0514     5.3279   125.3733 </r>
       <r>    70.0964     0.7048   125.4051 </r>
       <r>    70.1415     0.0258   125.4062 </r>
       <r>    70.1865     0.0002   125.4063 </r>
       <r>    70.2316     0.0026   125.4064 </r>
       <r>    70.2766     0.0906   125.4105 </r>
       <r>    70.3217     0.7091   125.4424 </r>
       <r>    70.3668     1.3175   125.5018 </r>
       <r>    70.4118     0.6469   125.5309 </r>
       <r>    70.4569     0.9744   125.5748 </r>
       <r>    70.5019     3.4631   125.7308 </r>
       <r>    70.5470     3.1670   125.8735 </r>
       <r>    70.5920     0.8542   125.9120 </r>
       <r>    70.6371     1.6682   125.9872 </r>
       <r>    70.6821     3.9240   126.1640 </r>
       <r>    70.7272     2.2782   126.2666 </r>
       <r>    70.7723     0.3145   126.2808 </r>
       <r>    70.8173     0.0099   126.2812 </r>
       <r>    70.8624     0.0001   126.2812 </r>
       <r>    70.9074     0.0000   126.2812 </r>
       <r>    70.9525     0.0000   126.2812 </r>
       <r>    70.9975     0.0000   126.2812 </r>
       <r>    71.0426     0.0000   126.2812 </r>
       <r>    71.0876     0.0000   126.2812 </r>
       <r>    71.1327     0.0000   126.2813 </r>
       <r>    71.1778     0.0000   126.2813 </r>
       <r>    71.2228     0.0001   126.2813 </r>
       <r>    71.2679     0.0083   126.2816 </r>
       <r>    71.3129     0.2803   126.2943 </r>
       <r>    71.3580     2.1585   126.3915 </r>
       <r>    71.4030     3.9460   126.5693 </r>
       <r>    71.4481     1.7436   126.6479 </r>
       <r>    71.4931     0.1819   126.6561 </r>
       <r>    71.5382     0.0043   126.6562 </r>
       <r>    71.5833     0.0000   126.6562 </r>
       <r>    71.6283     0.0000   126.6563 </r>
       <r>    71.6734     0.0048   126.6565 </r>
       <r>    71.7184     0.2481   126.6676 </r>
       <r>    71.7635     2.8529   126.7962 </r>
       <r>    71.8085     7.7047   127.1433 </r>
       <r>    71.8536     5.0258   127.3698 </r>
       <r>    71.8987     0.7817   127.4050 </r>
       <r>    71.9437     0.0278   127.4062 </r>
       <r>    71.9888     0.0002   127.4063 </r>
       <r>    72.0338     0.0004   127.4063 </r>
       <r>    72.0789     0.0329   127.4078 </r>
       <r>    72.1239     0.5657   127.4332 </r>
       <r>    72.1690     2.2570   127.5349 </r>
       <r>    72.2140     2.1675   127.6326 </r>
       <r>    72.2591     0.5656   127.6581 </r>
       <r>    72.3042     0.7747   127.6930 </r>
       <r>    72.3492     2.1014   127.7877 </r>
       <r>    72.3943     1.8190   127.8696 </r>
       <r>    72.4393     0.6958   127.9010 </r>
       <r>    72.4844     0.1121   127.9060 </r>
       <r>    72.5294     0.0051   127.9062 </r>
       <r>    72.5745     0.0001   127.9062 </r>
       <r>    72.6195     0.0000   127.9062 </r>
       <r>    72.6646     0.0000   127.9062 </r>
       <r>    72.7097     0.0000   127.9062 </r>
       <r>    72.7547     0.0000   127.9062 </r>
       <r>    72.7998     0.0000   127.9062 </r>
       <r>    72.8448     0.0000   127.9062 </r>
       <r>    72.8899     0.0000   127.9062 </r>
       <r>    72.9349     0.0000   127.9062 </r>
       <r>    72.9800     0.0000   127.9062 </r>
       <r>    73.0250     0.0000   127.9062 </r>
       <r>    73.0701     0.0000   127.9062 </r>
       <r>    73.1152     0.0000   127.9062 </r>
       <r>    73.1602     0.0000   127.9062 </r>
       <r>    73.2053     0.0000   127.9062 </r>
       <r>    73.2503     0.0000   127.9062 </r>
       <r>    73.2954     0.0000   127.9062 </r>
       <r>    73.3404     0.0000   127.9062 </r>
       <r>    73.3855     0.0000   127.9062 </r>
       <r>    73.4306     0.0000   127.9062 </r>
       <r>    73.4756     0.0000   127.9062 </r>
       <r>    73.5207     0.0000   127.9062 </r>
       <r>    73.5657     0.0000   127.9062 </r>
       <r>    73.6108     0.0000   127.9062 </r>
       <r>    73.6558     0.0000   127.9062 </r>
       <r>    73.7009     0.0000   127.9062 </r>
       <r>    73.7459     0.0000   127.9062 </r>
       <r>    73.7910     0.0000   127.9062 </r>
       <r>    73.8361     0.0000   127.9062 </r>
       <r>    73.8811     0.0000   127.9062 </r>
       <r>    73.9262     0.0000   127.9062 </r>
       <r>    73.9712     0.0000   127.9062 </r>
       <r>    74.0163     0.0000   127.9062 </r>
       <r>    74.0613     0.0000   127.9062 </r>
       <r>    74.1064     0.0000   127.9062 </r>
       <r>    74.1514     0.0000   127.9062 </r>
       <r>    74.1965     0.0000   127.9062 </r>
       <r>    74.2416     0.0000   127.9062 </r>
       <r>    74.2866     0.0000   127.9062 </r>
       <r>    74.3317     0.0000   127.9062 </r>
       <r>    74.3767     0.0000   127.9062 </r>
       <r>    74.4218     0.0000   127.9062 </r>
       <r>    74.4668     0.0000   127.9062 </r>
       <r>    74.5119     0.0000   127.9062 </r>
       <r>    74.5569     0.0000   127.9062 </r>
       <r>    74.6020     0.0000   127.9062 </r>
       <r>    74.6471     0.0000   127.9062 </r>
       <r>    74.6921     0.0000   127.9062 </r>
       <r>    74.7372     0.0000   127.9062 </r>
       <r>    74.7822     0.0000   127.9062 </r>
       <r>    74.8273     0.0000   127.9062 </r>
       <r>    74.8723     0.0000   127.9062 </r>
       <r>    74.9174     0.0000   127.9062 </r>
       <r>    74.9625     0.0000   127.9062 </r>
       <r>    75.0075     0.0000   127.9062 </r>
       <r>    75.0526     0.0000   127.9062 </r>
       <r>    75.0976     0.0000   127.9062 </r>
       <r>    75.1427     0.0000   127.9062 </r>
       <r>    75.1877     0.0000   127.9063 </r>
       <r>    75.2328     0.0000   127.9063 </r>
       <r>    75.2778     0.0001   127.9063 </r>
       <r>    75.3229     0.0067   127.9066 </r>
       <r>    75.3680     0.1471   127.9132 </r>
       <r>    75.4130     0.7439   127.9467 </r>
       <r>    75.4581     0.9015   127.9873 </r>
       <r>    75.5031     0.2633   127.9992 </r>
       <r>    75.5482     0.0179   128.0000 </r>
       <r>    75.5932     0.0003   128.0000 </r>
       <r>    75.6383     0.0000   128.0000 </r>
       <r>    75.6833     0.0000   128.0000 </r>
       <r>    75.7284     0.0000   128.0000 </r>
       <r>    75.7735     0.0000   128.0000 </r>
       <r>    75.8185     0.0000   128.0000 </r>
       <r>    75.8636     0.0000   128.0000 </r>
       <r>    75.9086     0.0000   128.0000 </r>
       <r>    75.9537     0.0000   128.0000 </r>
       <r>    75.9987     0.0000   128.0000 </r>
       <r>    76.0438     0.0000   128.0000 </r>
       <r>    76.0888     0.0000   128.0000 </r>
       <r>    76.1339     0.0000   128.0000 </r>
       <r>    76.1790     0.0000   128.0000 </r>
       <r>    76.2240     0.0000   128.0000 </r>
       <r>    76.2691     0.0000   128.0000 </r>
       <r>    76.3141     0.0000   128.0000 </r>
       <r>    76.3592     0.0000   128.0000 </r>
       <r>    76.4042     0.0000   128.0000 </r>
       <r>    76.4493     0.0000   128.0000 </r>
       <r>    76.4944     0.0000   128.0000 </r>
       <r>    76.5394     0.0000   128.0000 </r>
       <r>    76.5845     0.0000   128.0000 </r>
       <r>    76.6295     0.0000   128.0000 </r>
       <r>    76.6746     0.0000   128.0000 </r>
       <r>    76.7196     0.0000   128.0000 </r>
       <r>    76.7647     0.0000   128.0000 </r>
       <r>    76.8097     0.0000   128.0000 </r>
       <r>    76.8548     0.0000   128.0000 </r>
       <r>    76.8999     0.0000   128.0000 </r>
       <r>    76.9449     0.0000   128.0000 </r>
       <r>    76.9900     0.0000   128.0000 </r>
       <r>    77.0350     0.0000   128.0000 </r>
       <r>    77.0801     0.0000   128.0000 </r>
       <r>    77.1251     0.0000   128.0000 </r>
       <r>    77.1702     0.0000   128.0000 </r>
       <r>    77.2152     0.0000   128.0000 </r>
       <r>    77.2603     0.0000   128.0000 </r>
       <r>    77.3054     0.0000   128.0000 </r>
       <r>    77.3504     0.0000   128.0000 </r>
       <r>    77.3955     0.0000   128.0000 </r>
       <r>    77.4405     0.0000   128.0000 </r>
       <r>    77.4856     0.0000   128.0000 </r>
       <r>    77.5306     0.0000   128.0000 </r>
       <r>    77.5757     0.0000   128.0000 </r>
       <r>    77.6207     0.0000   128.0000 </r>
       <r>    77.6658     0.0000   128.0000 </r>
       <r>    77.7109     0.0000   128.0000 </r>
       <r>    77.7559     0.0000   128.0000 </r>
       <r>    77.8010     0.0000   128.0000 </r>
       <r>    77.8460     0.0000   128.0000 </r>
       <r>    77.8911     0.0000   128.0000 </r>
       <r>    77.9361     0.0000   128.0000 </r>
       <r>    77.9812     0.0000   128.0000 </r>
       <r>    78.0263     0.0000   128.0000 </r>
       <r>    78.0713     0.0000   128.0000 </r>
       <r>    78.1164     0.0000   128.0000 </r>
       <r>    78.1614     0.0000   128.0000 </r>
       <r>    78.2065     0.0000   128.0000 </r>
       <r>    78.2515     0.0000   128.0000 </r>
       <r>    78.2966     0.0000   128.0000 </r>
       <r>    78.3416     0.0000   128.0000 </r>
       <r>    78.3867     0.0000   128.0000 </r>
       <r>    78.4318     0.0000   128.0000 </r>
       <r>    78.4768     0.0000   128.0000 </r>
       <r>    78.5219     0.0000   128.0000 </r>
       <r>    78.5669     0.0000   128.0000 </r>
       <r>    78.6120     0.0000   128.0000 </r>
       <r>    78.6570     0.0000   128.0000 </r>
       <r>    78.7021     0.0000   128.0000 </r>
       <r>    78.7471     0.0000   128.0000 </r>
       <r>    78.7922     0.0000   128.0000 </r>
       <r>    78.8373     0.0000   128.0000 </r>
       <r>    78.8823     0.0000   128.0000 </r>
       <r>    78.9274     0.0000   128.0000 </r>
       <r>    78.9724     0.0000   128.0000 </r>
       <r>    79.0175     0.0000   128.0000 </r>
       <r>    79.0625     0.0000   128.0000 </r>
       <r>    79.1076     0.0000   128.0000 </r>
       <r>    79.1526     0.0000   128.0000 </r>
       <r>    79.1977     0.0000   128.0000 </r>
       <r>    79.2428     0.0000   128.0000 </r>
       <r>    79.2878     0.0000   128.0000 </r>
       <r>    79.3329     0.0000   128.0000 </r>
       <r>    79.3779     0.0000   128.0000 </r>
       <r>    79.4230     0.0000   128.0000 </r>
       <r>    79.4680     0.0000   128.0000 </r>
       <r>    79.5131     0.0000   128.0000 </r>
      </set>
     </set>
    </array>
   </total>
  </dos>
 </calculation>
 <structure name="finalpos" >
  <crystal>
   <varray name="basis" >
    <v>       2.71500000       2.71500000       0.00000000 </v>
    <v>       0.00000000       2.71500000       2.71500000 </v>
    <v>       2.71500000       0.00000000       2.71500000 </v>
   </varray>
   <i name="volume">     40.02575175 </i>
   <varray name="rec_basis" >
    <v>       0.18416206       0.18416206      -0.18416206 </v>
    <v>      -0.18416206       0.18416206       0.18416206 </v>
    <v>       0.18416206      -0.18416206       0.18416206 </v>
   </varray>
  </crystal>
  <varray name="positions" >
   <v>       0.00000000       0.00000000       0.00000000 </v>
   <v>       0.25000000       0.25000000       0.25000000 </v>
  </varray>
 </structure>
</modeling>
