unknown system                          
   1.00000000000000     
     5.428835    0.000000    0.000000
     0.000000    5.428835    0.000000
     0.000000    0.000000    5.428835
   Si
     8
Direct
  0.000000  0.000000  0.000000
  0.000000  0.500000  0.500000
  0.500000  0.500000  0.000000
  0.500000  0.000000  0.500000
  0.750000  0.250000  0.250000
  0.750000  0.750000  0.750000
  0.250000  0.750000  0.250000
  0.250000  0.250000  0.750000
 
   56   56   56
 -.32693354050E+02 -.28110007493E+02 -.15415968082E+02 0.25704882193E+01 0.22152349479E+02
 0.39784223157E+02 0.52876797955E+02 0.60189438922E+02 0.61822244729E+02 0.58920187355E+02
 0.53215455807E+02 0.46445324468E+02 0.39533216131E+02 0.32958894099E+02 0.27028636215E+02
 0.21880802055E+02 0.17525603345E+02 0.13899739771E+02 0.10913342910E+02 0.84773468039E+01
 0.65127802427E+01 0.49502629173E+01 0.37272818699E+01 0.27872328907E+01 0.20809194009E+01
 0.15688581766E+01 0.12221786670E+01 0.10216049947E+01 0.95597907006E+00 0.10216027783E+01
 0.12221738919E+01 0.15688501632E+01 0.20809071218E+01 0.27872149506E+01 0.37272565137E+01
 0.49502280904E+01 0.65127336882E+01 0.84772861624E+01 0.10913265792E+02 0.13899643786E+02
 0.17525486122E+02 0.21880661375E+02 0.27028470358E+02 0.32958702358E+02 0.39532999271E+02
 0.46445084943E+02 0.53215197817E+02 0.58919918069E+02 0.61821977022E+02 0.60189190920E+02
 0.52876589704E+02 0.39784070927E+02 0.22152259354E+02 0.25704521369E+01 -.15415970520E+02
 -.28110000532E+02 -.28110004587E+02 -.23670833138E+02 -.11387800077E+02 0.59819489908E+01
 0.24831253076E+02 0.41715036856E+02 0.54133512725E+02 0.60907890638E+02 0.62165246762E+02
 0.59045145643E+02 0.53250488261E+02 0.46463002735E+02 0.39553602709E+02 0.32990911141E+02
 0.27074127524E+02 0.21937758956E+02 0.17590644241E+02 0.13969628367E+02 0.10985646645E+02
 0.85504814292E+01 0.65857785591E+01 0.50225527753E+01 0.37985496530E+01 0.28573185101E+01
 0.21497468000E+01 0.16364526161E+01 0.12887293637E+01 0.10874675276E+01 0.10216038788E+01
 0.10874648038E+01 0.12887235195E+01 0.16364428716E+01 0.21497319962E+01 0.28572971103E+01
 0.37985197769E+01 0.50225122877E+01 0.65857251953E+01 0.85504129296E+01 0.10985560876E+02
 0.13969523411E+02 0.17590518487E+02 0.21937611279E+02 0.27073957662E+02 0.32990720193E+02
 0.39553393537E+02 0.46462780065E+02 0.53250258579E+02 0.59044917567E+02 0.62165031983E+02
 0.60907703070E+02 0.54133366139E+02 0.41714941012E+02 0.24831209151E+02 0.59819466026E+01
 -.11387781270E+02 -.23670816102E+02 -.15415963510E+02 -.11387804835E+02 -.27331081626E+00
 0.15351478066E+02 0.32140479502E+02 0.46934056839E+02 0.57482374654E+02 0.62776306088E+02
 0.63014484899E+02 0.59317681657E+02 0.53303348856E+02 0.46483808149E+02 0.39594155488E+02
 0.33073734000E+02 0.27202135464E+02 0.22103341611E+02 0.17782694499E+02 0.14177833774E+02
 0.11202304394E+02 0.87705602657E+01 0.68061948444E+01 0.52414604589E+01 0.40148853941E+01
 0.30704848306E+01 0.23594278945E+01 0.18426616810E+01 0.14919676148E+01 0.12887276813E+01
 0.12221761771E+01 0.12887247102E+01 0.14919612387E+01 0.18426510491E+01 0.23594117583E+01
 0.30704615671E+01 0.40148530636E+01 0.52414169108E+01 0.68061378610E+01 0.87704877229E+01
 0.11202214425E+02 0.14177724922E+02 0.17782565866E+02 0.22103193087E+02 0.27201968104E+02
 0.33073550494E+02 0.39593960498E+02 0.46483608335E+02 0.53303152655E+02 0.59317498971E+02
 0.63014326331E+02 0.62776181526E+02 0.57482291615E+02 0.46934018313E+02 0.32140481419E+02
 0.15351507763E+02 -.27327290835E+00 -.11387779247E+02 0.25704987439E+01 0.59819399674E+01
 0.15351468141E+02 0.28393073703E+02 0.42166149009E+02 0.53939028555E+02 0.61824067615E+02
 0.65049460495E+02 0.63906338152E+02 0.59476720728E+02 0.53240622195E+02 0.46421566006E+02
 0.39598871660E+02 0.33170688854E+02 0.27388628735E+02 0.22362132960E+02 0.18092524118E+02
 0.14519797723E+02 0.11562400419E+02 0.91395652785E+01 0.71783606895E+01 0.56132174368E+01
 0.43839890036E+01 0.34355160091E+01 0.27195688536E+01 0.21977517940E+01 0.18426587088E+01
 0.16364483101E+01 0.15688537289E+01 0.16364453857E+01 0.18426524082E+01 0.21977412305E+01
 0.27195527316E+01 0.34354926669E+01 0.43839564884E+01 0.56131736230E+01 0.71783034331E+01
 0.91394926001E+01 0.11562310704E+02 0.14519689924E+02 0.18092397959E+02 0.22361989201E+02
 0.27388469534E+02 0.33170518182E+02 0.39598695569E+02 0.46421392603E+02 0.53240461310E+02
 0.59476583287E+02 0.63906234190E+02 0.65049396821E+02 0.61824046427E+02 0.53939046585E+02
 0.42166196884E+02 0.28393136054E+02 0.15351525722E+02 0.59819744315E+01 0.22152376573E+02
 0.24831250372E+02 0.32140466947E+02 0.42166141109E+02 0.52471632718E+02 0.60836516144E+02
 0.65787494683E+02 0.66810099150E+02 0.64281128230E+02 0.59216225531E+02 0.52892476467E+02
 0.46162579551E+02 0.39491186644E+02 0.33229491665E+02 0.27597724625E+02 0.22689998161E+02
 0.18505015948E+02 0.14987736258E+02 0.12064292131E+02 0.96610144454E+01 0.77100645887E+01
 0.61490105118E+01 0.49195852767E+01 0.39679367956E+01 0.32469972758E+01 0.27195638025E+01
 0.23594202499E+01 0.21497385580E+01 0.20809120893E+01 0.21497360197E+01 0.23594147208E+01
 0.27195543883E+01 0.32469826660E+01 0.39679153165E+01 0.49195549803E+01 0.61489693043E+01
 0.77100103954E+01 0.96609454110E+01 0.12064206848E+02 0.14987634009E+02 0.18504896954E+02
 0.22689863863E+02 0.27597578017E+02 0.33229337638E+02 0.39491032178E+02 0.46162433621E+02
 0.52892349601E+02 0.59216129050E+02 0.64281072031E+02 0.66810088214E+02 0.65787527467E+02
 0.60836584458E+02 0.52471722555E+02 0.42166234259E+02 0.32140543756E+02 0.24831293787E+02
 0.39784278657E+02 0.41715055010E+02 0.46934055482E+02 0.53939022943E+02 0.60836513282E+02
 0.65937697454E+02 0.68180636518E+02 0.67287989086E+02 0.63692808027E+02 0.58311217016E+02
 0.52102750117E+02 0.45597411858E+02 0.39192994711E+02 0.33193340135E+02 0.27788004927E+02
 0.23057675506E+02 0.19001353195E+02 0.15572247184E+02 0.12707118300E+02 0.10341604182E+02
 0.84143883827E+01 0.68669887951E+01 0.56435625146E+01 0.46922221513E+01 0.39679288240E+01
 0.34355033789E+01 0.30704703912E+01 0.28573046382E+01 0.27872214815E+01 0.28573028862E+01
 0.30704664412E+01 0.34354963396E+01 0.39679173766E+01 0.46922046053E+01 0.56435369081E+01
 0.68669530351E+01 0.84143404234E+01 0.10341542240E+02 0.12707041108E+02 0.15572154254E+02
 0.19001245102E+02 0.23057554170E+02 0.27787873904E+02 0.33193204877E+02 0.39192862673E+02
 0.45597292306E+02 0.52102653575E+02 0.58311154346E+02 0.63692788756E+02 0.67288017457E+02
 0.68180709051E+02 0.65937802999E+02 0.60836634699E+02 0.53939139816E+02 0.46934147494E+02
 0.41715105662E+02 0.52876887181E+02 0.54133560515E+02 0.57482394459E+02 0.61824072965E+02
 0.65787494426E+02 0.68180634955E+02 0.68308431686E+02 0.66083920556E+02 0.61954023330E+02
 0.56666688435E+02 0.50768882632E+02 0.44647432639E+02 0.38642377347E+02 0.33012814450E+02
 0.27920729105E+02 0.23436771127E+02 0.19563738628E+02 0.16266284831E+02 0.13494263976E+02
 0.11194229446E+02 0.93123003797E+01 0.77944824591E+01 0.65879137113E+01 0.56435507964E+01
 0.49195659713E+01 0.43839658360E+01 0.40148616370E+01 0.37985281023E+01 0.37272648315E+01
 0.37985276030E+01 0.40148601924E+01 0.43839625432E+01 0.49195594767E+01 0.56435393501E+01
 0.65878952776E+01 0.77944548740E+01 0.93122615468E+01 0.11194177569E+02 0.13494197831E+02
 0.16266204053E+02 0.19563644007E+02 0.23436664876E+02 0.27920615102E+02 0.33012698403E+02
 0.38642266797E+02 0.44647336668E+02 0.50768811196E+02 0.56666651321E+02 0.61954028735E+02
 0.66083972414E+02 0.68308526167E+02 0.68180760095E+02 0.65787632014E+02 0.61824201777E+02
 0.57482494022E+02 0.54133614725E+02 0.60189555629E+02 0.60907964563E+02 0.62776345832E+02
 0.65049476765E+02 0.66810101235E+02 0.67287984224E+02 0.66083915063E+02 0.63240929745E+02
 0.59162059269E+02 0.54261702644E+02 0.48860555011E+02 0.43280432726E+02 0.37806282657E+02
 0.32656146728E+02 0.27968302975E+02 0.23806911927E+02 0.20181506629E+02 0.17070292360E+02
 0.14437424534E+02 0.12240864086E+02 0.10434330839E+02 0.89685917461E+01 0.77944662868E+01
 0.68669612577E+01 0.61489761519E+01 0.56131804345E+01 0.52414245596E+01 0.50225212447E+01
 0.49502385170E+01 0.50225225384E+01 0.52414266761E+01 0.56131824122E+01 0.61489765359E+01
 0.68669581543E+01 0.77944574859E+01 0.89685749003E+01 0.10434303683E+02 0.12240824692E+02
 0.14437371602E+02 0.17070225531E+02 0.20181426778E+02 0.23806821418E+02 0.27968205831E+02
 0.32656048701E+02 0.37806191111E+02 0.43280356243E+02 0.48860502646E+02 0.54261682821E+02
 0.59162078404E+02 0.63240990658E+02 0.66084014493E+02 0.67288111192E+02 0.66810238538E+02
 0.65049604132E+02 0.62776443716E+02 0.60908017681E+02 0.61822372577E+02 0.62165332138E+02
 0.63014532685E+02 0.63906356557E+02 0.64281126401E+02 0.63692794988E+02 0.61954007699E+02
 0.59162048694E+02 0.55499188122E+02 0.51167778976E+02 0.46419469195E+02 0.41514635187E+02
 0.36686455549E+02 0.32115769907E+02 0.27920724485E+02 0.24161613623E+02 0.20856032770E+02
 0.17995836295E+02 0.15558748961E+02 0.13513164334E+02 0.11819786581E+02 0.10434309727E+02
 0.93122633936E+01 0.84143407166E+01 0.77100112523E+01 0.71783063834E+01 0.68061438508E+01
 0.65857346665E+01 0.65127467019E+01 0.65857383883E+01 0.68061507485E+01 0.71783153460E+01
 0.77100206058E+01 0.84143482893E+01 0.93122666579E+01 0.10434306003E+02 0.11819773284E+02
 0.13513139256E+02 0.15558710591E+02 0.17995784156E+02 0.20855967717E+02 0.24161538073E+02
 0.27920642512E+02 0.32115687202E+02 0.36686379185E+02 0.41514573130E+02 0.46419429511E+02
 0.51167768751E+02 0.55499212205E+02 0.59162108414E+02 0.61954099743E+02 0.63692910301E+02
 0.64281250305E+02 0.63906471298E+02 0.63014620853E+02 0.62165379993E+02 0.58920307445E+02
 0.59045224505E+02 0.59317722344E+02 0.59476730046E+02 0.59216212443E+02 0.58311191365E+02
 0.56666659732E+02 0.54261678790E+02 0.51167765560E+02 0.47532092033E+02 0.43546128369E+02
 0.39413008973E+02 0.35318387881E+02 0.31409781949E+02 0.27787998272E+02 0.24510472243E+02
 0.21601885767E+02 0.19065292306E+02 0.16889034705E+02 0.15049494661E+02 0.13513138101E+02
 0.12240816959E+02 0.11194167000E+02 0.10341532064E+02 0.96609382124E+01 0.91394902342E+01
 0.87704913017E+01 0.85504229067E+01 0.84773024773E+01 0.85504298119E+01 0.87705044102E+01
 0.91395081417E+01 0.96609588456E+01 0.10341552780E+02 0.11194184764E+02 0.12240828573E+02
 0.13513140484E+02 0.15049485164E+02 0.16889011464E+02 0.19065254610E+02 0.21601834375E+02
 0.24510409579E+02 0.27787928448E+02 0.31409710608E+02 0.35318321838E+02 0.39412955640E+02
 0.43546094948E+02 0.47532084514E+02 0.51167787631E+02 0.54261730842E+02 0.56666738129E+02
 0.58311288194E+02 0.59216315940E+02 0.59476825846E+02 0.59317796046E+02 0.59045264558E+02
 0.53215555593E+02 0.53250548748E+02 0.53303372927E+02 0.53240616273E+02 0.52892449213E+02
 0.52102710998E+02 0.50768840662E+02 0.48860517757E+02 0.46419442110E+02 0.43546114484E+02
 0.40378999770E+02 0.37070470395E+02 0.33764112366E+02 0.30578100112E+02 0.27597719129E+02
 0.24876667029E+02 0.22443316070E+02 0.20307055601E+02 0.18462006151E+02 0.16889003572E+02
 0.15558691695E+02 0.14437346730E+02 0.13494171620E+02 0.12707017587E+02 0.12064189272E+02
 0.11562301420E+02 0.11202214837E+02 0.10985571507E+02 0.10913286436E+02 0.10985582486E+02
 0.11202235827E+02 0.11562330529E+02 0.12064223780E+02 0.12707054123E+02 0.13494206389E+02
 0.14437375793E+02 0.15558711278E+02 0.16889010421E+02 0.18461997922E+02 0.20307031269E+02
 0.22443276260E+02 0.24876614185E+02 0.27597657464E+02 0.30578035331E+02 0.33764051181E+02
 0.37070419866E+02 0.40378966496E+02 0.43546103695E+02 0.46419456771E+02 0.48860557823E+02
 0.50768902638E+02 0.52102787949E+02 0.52892531349E+02 0.53240692166E+02 0.53303431290E+02
 0.53250580476E+02 0.46445401717E+02 0.46463043148E+02 0.46483815014E+02 0.46421545470E+02
 0.46162539597E+02 0.45597361155E+02 0.44647379473E+02 0.43280384120E+02 0.41514596297E+02
 0.39412982790E+02 0.37070457783E+02 0.34597035142E+02 0.32100768187E+02 0.29674452999E+02
 0.27388626200E+02 0.25290667189E+02 0.23407402339E+02 0.21748164404E+02 0.20307020302E+02
 0.19065225805E+02 0.17995743720E+02 0.17070179632E+02 0.16266158457E+02 0.15572114043E+02
 0.14987603352E+02 0.14519671885E+02 0.14177721363E+02 0.13969535011E+02 0.13899670160E+02
 0.13969551106E+02 0.14177752184E+02 0.14519714808E+02 0.14987654706E+02 0.15572169396E+02
 0.16266212944E+02 0.17070228299E+02 0.17995781879E+02 0.19065249440E+02 0.20307026501E+02
 0.21748151797E+02 0.23407371442E+02 0.25290620544E+02 0.27388568251E+02 0.29674389693E+02
 0.32100706367E+02 0.34596981795E+02 0.37070419216E+02 0.39412963815E+02 0.41514599511E+02
 0.43280409384E+02 0.44647423689E+02 0.45597418422E+02 0.46162601817E+02 0.46421603409E+02
 0.46483859714E+02 0.46463067477E+02 0.39533273408E+02 0.39553626019E+02 0.39594148356E+02
 0.39598839898E+02 0.39491137527E+02 0.39192936046E+02 0.38642316591E+02 0.37806226181E+02
 0.36686408116E+02 0.35318352379E+02 0.33764089799E+02 0.32100757889E+02 0.30407874126E+02
 0.28756462872E+02 0.27202136060E+02 0.25782349932E+02 0.24516508183E+02 0.23407364184E+02
 0.22443242349E+02 0.21601780512E+02 0.20855901281E+02 0.20181355258E+02 0.19563574557E+02
 0.19001184168E+02 0.18504849944E+02 0.18092368953E+02 0.17782557417E+02 0.17590531537E+02
 0.17525520061E+02 0.17590553967E+02 0.17782600351E+02 0.18092428749E+02 0.18504921610E+02
 0.19001261818E+02 0.19563651876E+02 0.20181425949E+02 0.20855959505E+02 0.21601821345E+02
 0.22443262265E+02 0.23407361510E+02 0.24516483427E+02 0.25782305878E+02 0.27202077560E+02
 0.28756396335E+02 0.30407806784E+02 0.32100696943E+02 0.33764041566E+02 0.35318321539E+02
 0.36686397143E+02 0.37806235019E+02 0.38642342606E+02 0.39192974292E+02 0.39491181332E+02
 0.39598881765E+02 0.39594181096E+02 0.39553643956E+02 0.32958935147E+02 0.32990921545E+02
 0.33073717267E+02 0.33170650314E+02 0.33229437803E+02 0.33193277848E+02 0.33012750333E+02
 0.32656086467E+02 0.32115717839E+02 0.31409740818E+02 0.30578071023E+02 0.29674435544E+02
 0.28756455403E+02 0.27876354239E+02 0.27074131096E+02 0.26373799482E+02 0.25782310707E+02
 0.25290589365E+02 0.24876552904E+02 0.24510325783E+02 0.24161440359E+02 0.23806718782E+02
 0.23436566164E+02 0.23057467586E+02 0.22689796486E+02 0.22361946535E+02 0.22103178677E+02
 0.21937626471E+02 0.21880705257E+02 0.21937656670E+02 0.22103236410E+02 0.22362026806E+02
 0.22689892557E+02 0.23057571650E+02 0.23436670016E+02 0.23806814419E+02 0.24161520537E+02
 0.24510384551E+02 0.24876586130E+02 0.25290595183E+02 0.25782289791E+02 0.26373755058E+02
 0.27074068631E+02 0.27876280817E+02 0.28756378875E+02 0.29674363569E+02 0.30578010169E+02
 0.31409695845E+02 0.32115691249E+02 0.32656078350E+02 0.33012758486E+02 0.33193298132E+02
 0.33229464711E+02 0.33170677741E+02 0.33073739417E+02 0.32990933871E+02 0.27028664955E+02
 0.27074129282E+02 0.27202113498E+02 0.27388587755E+02 0.27597670271E+02 0.27787943180E+02
 0.27920665709E+02 0.27968242940E+02 0.27920671715E+02 0.27787955336E+02 0.27597687183E+02
 0.27388605047E+02 0.27202124334E+02 0.27074126573E+02 0.27028643312E+02 0.27074092770E+02
 0.27202057963E+02 0.27388508468E+02 0.27597563717E+02 0.27787809074E+02 0.27920507350E+02
 0.27968065583E+02 0.27920480683E+02 0.27787755774E+02 0.27597485483E+02 0.27388410041E+02
 0.27201946581E+02 0.27073976014E+02 0.27028527267E+02 0.27074015672E+02 0.27202022271E+02
 0.27388515025E+02 0.27597610768E+02 0.27787891106E+02 0.27920615478E+02 0.27968189749E+02
 0.27920611996E+02 0.27787887146E+02 0.27597610547E+02 0.27388522175E+02 0.27202039617E+02
 0.27074046271E+02 0.27028574945E+02 0.27074044270E+02 0.27202036716E+02 0.27388520386E+02
 0.27597612450E+02 0.27787895505E+02 0.27920629409E+02 0.27968218419E+02 0.27920657138E+02
 0.27787947072E+02 0.27597682055E+02 0.27388602436E+02 0.27202126387E+02 0.27074136728E+02
 0.21880821993E+02 0.21937755714E+02 0.22103318049E+02 0.22362093109E+02 0.22689946814E+02
 0.23057617762E+02 0.23436711921E+02 0.23806855621E+02 0.24161563681E+02 0.24510431025E+02
 0.24876635685E+02 0.25290645665E+02 0.25782337091E+02 0.26373793358E+02 0.27074090937E+02
 0.27876279718E+02 0.28756347422E+02 0.29674296186E+02 0.30577903488E+02 0.31409549354E+02
 0.32115507632E+02 0.32655863458E+02 0.33012520913E+02 0.33193048458E+02 0.33229214497E+02
 0.33170438342E+02 0.33073520730E+02 0.32990743162E+02 0.32958776183E+02 0.32990794262E+02
 0.33073618075E+02 0.33170572964E+02 0.33229374556E+02 0.33193220644E+02 0.33012691747E+02
 0.32656020390E+02 0.32115639940E+02 0.31409648880E+02 0.30577965175E+02 0.29674318372E+02
 0.28756331834E+02 0.27876231156E+02 0.27074016665E+02 0.26373702249E+02 0.25782238590E+02
 0.25290548695E+02 0.24876547672E+02 0.24510357219E+02 0.24161506883E+02 0.23806816285E+02
 0.23436688542E+02 0.23057607388E+02 0.22689945616E+02 0.22362096965E+02 0.22103323132E+02
 0.21937759063E+02 0.17525617346E+02 0.17590638822E+02 0.17782672061E+02 0.18092488016E+02
 0.18504970182E+02 0.19001302046E+02 0.19563686276E+02 0.20181456812E+02 0.20855988509E+02
 0.21601849173E+02 0.22443288223E+02 0.23407383258E+02 0.24516496898E+02 0.25782305471E+02
 0.27202056581E+02 0.28756347661E+02 0.30407723667E+02 0.32100573928E+02 0.33763875426E+02
 0.35318112103E+02 0.36686147837E+02 0.37805952979E+02 0.38642038292E+02 0.39192660634E+02
 0.39490872482E+02 0.39598591553E+02 0.39593921341E+02 0.39553422879E+02 0.39533094503E+02
 0.39553487711E+02 0.39594044572E+02 0.39598761379E+02 0.39491073498E+02 0.39192875800E+02
 0.38642250715E+02 0.37806147350E+02 0.36686311527E+02 0.35318235952E+02 0.33763954219E+02
 0.32100606500E+02 0.30407712657E+02 0.28756298949E+02 0.27201978497E+02 0.25782207826E+02
 0.24516389905E+02 0.23407276420E+02 0.22443189376E+02 0.21601763841E+02 0.20855919699E+02
 0.20181405205E+02 0.19563650690E+02 0.19001279999E+02 0.18504958451E+02 0.18092483154E+02
 0.17782670893E+02 0.17590638904E+02 0.13899750074E+02 0.13969622839E+02 0.14177814347E+02
 0.14519767128E+02 0.14987697775E+02 0.15572204349E+02 0.16266241126E+02 0.17070250932E+02
 0.17995799718E+02 0.19065262408E+02 0.20307033337E+02 0.21748149796E+02 0.23407356367E+02
 0.25290586766E+02 0.27388509095E+02 0.29674298009E+02 0.32100575283E+02 0.34596805685E+02
 0.37070194787E+02 0.39412691160E+02 0.41514282866E+02 0.43280057397E+02 0.44647049064E+02
 0.45597036964E+02 0.46162230909E+02 0.46421260028E+02 0.46483558161E+02 0.46462817226E+02
 0.46445205912E+02 0.46462898257E+02 0.46483711781E+02 0.46421470877E+02 0.46162479204E+02
 0.45597301234E+02 0.44647308543E+02 0.43280293835E+02 0.41514481789E+02 0.39412842636E+02
 0.37070293738E+02 0.34596851725E+02 0.32100572169E+02 0.29674252803E+02 0.27388431183E+02
 0.25290486800E+02 0.23407245175E+02 0.21748037312E+02 0.20306927692E+02 0.19065169348E+02
 0.17995722455E+02 0.17070190398E+02 0.16266196479E+02 0.15572173546E+02 0.14987678110E+02
 0.14519755698E+02 0.14177808475E+02 0.13969620465E+02 0.10913351232E+02 0.10985642456E+02
 0.11202289183E+02 0.11562376353E+02 0.12064261847E+02 0.12707084667E+02 0.13494229838E+02
 0.14437392481E+02 0.15558721135E+02 0.16889012630E+02 0.18461990609E+02 0.20307011261E+02
 0.22443238991E+02 0.24876553775E+02 0.27597566981E+02 0.30577907268E+02 0.33763878205E+02
 0.37070195868E+02 0.40378687869E+02 0.43545770627E+02 0.46419074235E+02 0.48860136013E+02
 0.50768456704E+02 0.52102336990E+02 0.52892096637E+02 0.53240294631E+02 0.53303088466E+02
 0.53250303530E+02 0.53215347273E+02 0.53250403035E+02 0.53303276574E+02 0.53240551669E+02
 0.52892397654E+02 0.52102655472E+02 0.50768767699E+02 0.48860418327E+02 0.46419311762E+02
 0.43545952983E+02 0.40378810419E+02 0.37070259233E+02 0.33763887374E+02 0.30577870481E+02
 0.27597494572E+02 0.24876457061E+02 0.22443129209E+02 0.20306898578E+02 0.18461883301E+02
 0.16888916580E+02 0.15558639735E+02 0.14437326924E+02 0.13494179628E+02 0.12707048189E+02
 0.12064236865E+02 0.11562360431E+02 0.11202280057E+02 0.10985638373E+02 0.84773544434E+01
 0.85504795279E+01 0.87705499097E+01 0.91395481358E+01 0.96609925869E+01 0.10341579880E+02
 0.11194204973E+02 0.12240841527E+02 0.13513145414E+02 0.15049480598E+02 0.16888994946E+02
 0.19065222481E+02 0.21601781660E+02 0.24510329999E+02 0.27787814598E+02 0.31409554365E+02
 0.35318115122E+02 0.39412691577E+02 0.43545769336E+02 0.47531697340E+02 0.51167344293E+02
 0.54261242820E+02 0.56666222939E+02 0.58310768493E+02 0.59215817630E+02 0.59476375114E+02
 0.59317414700E+02 0.59044965592E+02 0.58920092582E+02 0.59045084392E+02 0.59317639075E+02
 0.59476681002E+02 0.59216174351E+02 0.58311143835E+02 0.56666587660E+02 0.54261572992E+02
 0.51167622521E+02 0.47531913120E+02 0.43545918721E+02 0.39412776303E+02 0.35318141385E+02
 0.31409531458E+02 0.27787753617E+02 0.24510242697E+02 0.21601679450E+02 0.19065115556E+02
 0.16888891573E+02 0.15049386696E+02 0.13513064510E+02 0.12240775060E+02 0.11194152797E+02
 0.10341540795E+02 0.96609648048E+01 0.91395296565E+01 0.87705388453E+01 0.85504744022E+01
 0.65127881395E+01 0.65857794767E+01 0.68061895153E+01 0.71783503447E+01 0.77100508025E+01
 0.84143729073E+01 0.93122849824E+01 0.10434317150E+02 0.11819775945E+02 0.13513131435E+02
 0.15558689356E+02 0.17995745429E+02 0.20855906131E+02 0.24161446910E+02 0.27920513792E+02
 0.32115512047E+02 0.36686148606E+02 0.41514279285E+02 0.46419067314E+02 0.51167337560E+02
 0.55498717279E+02 0.59161561930E+02 0.61953521213E+02 0.63692326775E+02 0.64280694459E+02
 0.63905975627E+02 0.63014210979E+02 0.62165069342E+02 0.61822160173E+02 0.62165204019E+02
 0.63014465991E+02 0.63906324495E+02 0.64281102590E+02 0.63692756700E+02 0.61953938253E+02
 0.59161939034E+02 0.55499036155E+02 0.51167587860E+02 0.46419245872E+02 0.41514388882E+02
 0.36686196462E+02 0.32115508267E+02 0.27920469972E+02 0.24161374987E+02 0.20855817464E+02
 0.17995650037E+02 0.15558595343E+02 0.13513044657E+02 0.11819700009E+02 0.10434253718E+02
 0.93122342428E+01 0.84143340691E+01 0.77100225157E+01 0.71783310344E+01 0.68061776645E+01
 0.65857738844E+01 0.49502716893E+01 0.50225566854E+01 0.52414599415E+01 0.56132133474E+01
 0.61490039970E+01 0.68669811602E+01 0.77944750360E+01 0.89685857656E+01 0.10434306187E+02
 0.12240816485E+02 0.14437349442E+02 0.17070185065E+02 0.20181362356E+02 0.23806725953E+02
 0.27968070813E+02 0.32655864526E+02 0.37805947884E+02 0.43280045088E+02 0.48860117369E+02
 0.54261221677E+02 0.59161545789E+02 0.63240398674E+02 0.66083385662E+02 0.67287479169E+02
 0.66809643048E+02 0.65049083049E+02 0.62776024725E+02 0.60907712315E+02 0.60189357869E+02
 0.60907854293E+02 0.62776295239E+02 0.65049456651E+02 0.66810085123E+02 0.67287950209E+02
 0.66083846835E+02 0.63240817876E+02 0.59161902320E+02 0.54261505419E+02 0.48860325841E+02
 0.43280181850E+02 0.37806020831E+02 0.32655884221E+02 0.27968049034E+02 0.23806674553E+02
 0.20181292411E+02 0.17070106240E+02 0.14437269534E+02 0.12240741188E+02 0.10434239130E+02
 0.89685288040E+01 0.77944286820E+01 0.68669450251E+01 0.61489771648E+01 0.56131946682E+01
 0.52414482734E+01 0.50225511089E+01 0.37272918517E+01 0.37985564343E+01 0.40148891724E+01
 0.43839903243E+01 0.49195849305E+01 0.56435614332E+01 0.65879128582E+01 0.77944665447E+01
 0.93122654428E+01 0.11194171183E+02 0.13494177805E+02 0.16266165949E+02 0.19563582070E+02
 0.23436571832E+02 0.27920482108E+02 0.33012515345E+02 0.38642023087E+02 0.44647022530E+02
 0.50768419270E+02 0.56666178415E+02 0.61953477744E+02 0.66083356161E+02 0.68307871970E+02
 0.68180107699E+02 0.65787026776E+02 0.61823684951E+02 0.57482092939E+02 0.54133336403E+02
 0.52876718190E+02 0.54133473223E+02 0.57482356464E+02 0.61824054990E+02 0.65787473654E+02
 0.68180594366E+02 0.68308358471E+02 0.66083806205E+02 0.61953865433E+02 0.56666491800E+02
 0.50768656235E+02 0.44647186967E+02 0.38642123078E+02 0.33012561454E+02 0.27920485920E+02
 0.23436544822E+02 0.19563534814E+02 0.16266107585E+02 0.13494115698E+02 0.11194110774E+02
 0.93122103283E+01 0.77944187473E+01 0.65878732060E+01 0.56435299373E+01 0.49195611066E+01
 0.43839734446E+01 0.40148784670E+01 0.37985512637E+01 0.27872441814E+01 0.28573278259E+01
 0.30704921953E+01 0.34355217262E+01 0.39679413712E+01 0.46922262139E+01 0.56435550026E+01
 0.68669661870E+01 0.84143467584E+01 0.10341539284E+02 0.12707025589E+02 0.15572121859E+02
 0.19001190206E+02 0.23057469588E+02 0.27787750801E+02 0.33193033033E+02 0.39192631236E+02
 0.45596990986E+02 0.52102274084E+02 0.58310692039E+02 0.63692245456E+02 0.67287408400E+02
 0.68180065420E+02 0.65937168507E+02 0.60836057639E+02 0.53938662079E+02 0.46933793607E+02
 0.41714876160E+02 0.39784151402E+02 0.41714994541E+02 0.46934025801E+02 0.53938997053E+02
 0.60836475355E+02 0.65937638903E+02 0.68180550960E+02 0.67287870578E+02 0.63692653200E+02
 0.58311028274E+02 0.52102535616E+02 0.45597181456E+02 0.39192758314E+02 0.33193106747E+02
 0.27787782109E+02 0.23057469270E+02 0.19001168116E+02 0.15572086460E+02 0.12706983703E+02
 0.10341496025E+02 0.84143056436E+01 0.68669293854E+01 0.56435236504E+01 0.46922007195E+01
 0.39679216752E+01 0.34355075094E+01 0.30704830422E+01 0.28573233608E+01 0.20809319147E+01
 0.21497581828E+01 0.23594380553E+01 0.27195779172E+01 0.32470055280E+01 0.39679366525E+01
 0.49195737795E+01 0.61489842585E+01 0.77100197828E+01 0.96609469685E+01 0.12064197582E+02
 0.14987609947E+02 0.18504852870E+02 0.22689793019E+02 0.27597472051E+02 0.33229186783E+02
 0.39490825951E+02 0.46162161860E+02 0.52892003687E+02 0.59215703416E+02 0.64280569095E+02
 0.66809525136E+02 0.65786936920E+02 0.60836010651E+02 0.52471212941E+02 0.42165828178E+02
 0.32140261039E+02 0.24831128153E+02 0.22152298198E+02 0.24831217800E+02 0.32140442645E+02
 0.42166102241E+02 0.52471572051E+02 0.60836434943E+02 0.65787394307E+02 0.66809977329E+02
 0.64280981201E+02 0.59216052742E+02 0.52892283306E+02 0.46162374427E+02 0.39490978068E+02
 0.33229287353E+02 0.27597530930E+02 0.22689819956E+02 0.18504856778E+02 0.14987598479E+02
 0.12064176938E+02 0.96609218848E+01 0.77099936614E+01 0.61489593910E+01 0.49195515948E+01
 0.39679179420E+01 0.32469906392E+01 0.27195669132E+01 0.23594308447E+01 0.21497546263E+01
 0.15688716952E+01 0.16364655389E+01 0.18426738505E+01 0.21977632096E+01 0.27195745841E+01
 0.34355137245E+01 0.43839759439E+01 0.56131904040E+01 0.71783161084E+01 0.91394992705E+01
 0.11562308828E+02 0.14519676091E+02 0.18092367639E+02 0.22361936512E+02 0.27388387118E+02
 0.33170397387E+02 0.39598527035E+02 0.46421167133E+02 0.53240170864E+02 0.59476222628E+02
 0.63905807030E+02 0.65048920517E+02 0.61823551806E+02 0.53938573932E+02 0.42165788277E+02
 0.28392824914E+02 0.15351326164E+02 0.59818752037E+01 0.25704664223E+01 0.59819317907E+01
 0.15351448464E+02 0.28393024950E+02 0.42166071586E+02 0.53938931823E+02 0.61823959446E+02
 0.65049342195E+02 0.63906206301E+02 0.59476572574E+02 0.53240459858E+02 0.46421395693E+02
 0.39598700057E+02 0.33170522071E+02 0.27388471749E+02 0.22361989471E+02 0.18092396692E+02
 0.14519687969E+02 0.11562309056E+02 0.91394921721E+01 0.71783049447E+01 0.56131775588E+01
 0.43839631053E+01 0.34355020330E+01 0.27195647583E+01 0.21977556574E+01 0.18426687671E+01
 0.16364629916E+01 0.12221928942E+01 0.12887432922E+01 0.14919810587E+01 0.18426715858E+01
 0.23594325592E+01 0.30704821838E+01 0.40148729480E+01 0.52414353120E+01 0.68061537452E+01
 0.87704996791E+01 0.11202220518E+02 0.14177722510E+02 0.17782551409E+02 0.22103161963E+02
 0.27201914498E+02 0.33073467527E+02 0.39593840693E+02 0.46483444342E+02 0.53302938044E+02
 0.59317230078E+02 0.63014007724E+02 0.62775828577E+02 0.57481929650E+02 0.46933679040E+02
 0.32140196865E+02 0.15351302197E+02 -.27339127883E+00 -.11387822993E+02 -.15415963026E+02
 -.11387797124E+02 -.27332511155E+00 0.15351429772E+02 0.32140401960E+02 0.46933962851E+02
 0.57482274989E+02 0.62776204270E+02 0.63014378492E+02 0.59317567197E+02 0.53303226193E+02
 0.46483681068E+02 0.39594028653E+02 0.33073611728E+02 0.27202021259E+02 0.22103238007E+02
 0.17782603175E+02 0.14177755717E+02 0.11202239976E+02 0.87705092810E+01 0.68061565841E+01
 0.52414338223E+01 0.40148690239E+01 0.30704772594E+01 0.23594276714E+01 0.18426674399E+01
 0.14919780964E+01 0.12887417585E+01 0.10216196054E+01 0.10874819657E+01 0.12887417591E+01
 0.16364618991E+01 0.21497515725E+01 0.28573170173E+01 0.37985397554E+01 0.50225319622E+01
 0.65857440017E+01 0.85504300331E+01 0.10985575064E+02 0.13969532981E+02 0.17590521132E+02
 0.21937603974E+02 0.27073936572E+02 0.32990680749E+02 0.39553330769E+02 0.46462689191E+02
 0.53250135663E+02 0.59044761151E+02 0.62164846620E+02 0.60907500091E+02 0.54133162233E+02
 0.41714755428E+02 0.24831059980E+02 0.59818463875E+01 -.11387829921E+02 -.23670822977E+02
 -.28109989950E+02 -.23670820784E+02 -.11387808252E+02 0.59819137517E+01 0.24831195677E+02
 0.41714967811E+02 0.54133441130E+02 0.60907820247E+02 0.62165176528E+02 0.59045073004E+02
 0.53250412342E+02 0.46462925313E+02 0.39553526399E+02 0.32990838403E+02 0.27074060343E+02
 0.21937698729E+02 0.17590591855E+02 0.13969584311E+02 0.10985611063E+02 0.85504541446E+01
 0.65857591205E+01 0.50225405229E+01 0.37985437921E+01 0.28573181871E+01 0.21497511668E+01
 0.16364608663E+01 0.12887407458E+01 0.10874813665E+01 0.95599374971E+00 0.10216184091E+01
 0.12221903844E+01 0.15688674602E+01 0.20809251997E+01 0.27872338244E+01 0.37272762244E+01
 0.49502486618E+01 0.65127550609E+01 0.84773081227E+01 0.10913287915E+02 0.13899665401E+02
 0.17525506296E+02 0.21880678871E+02 0.27028483576E+02 0.32958709339E+02 0.39532997900E+02
 0.46445073394E+02 0.53215175107E+02 0.58919884974E+02 0.61821937301E+02 0.60189150495E+02
 0.52876554790E+02 0.39784046188E+02 0.22152246895E+02 0.25704514861E+01 -.15415961934E+02
 -.28109986932E+02 -.32693340828E+02 -.28110000217E+02 -.15415970888E+02 0.25704741205E+01
 0.22152326125E+02 0.39784194598E+02 0.52876768197E+02 0.60189410352E+02 0.61822217820E+02
 0.58920161534E+02 0.53215430627E+02 0.46445300224E+02 0.39533193438E+02 0.32958873544E+02
 0.27028618247E+02 0.21880786955E+02 0.17525591264E+02 0.13899730772E+02 0.10913336980E+02
 0.84773438577E+01 0.65127801294E+01 0.49502654452E+01 0.37272868267E+01 0.27872400516E+01